
     Program PWSCF v.7.0 starts on 19Dec2023 at 15:27: 1 

     This program is part of the open-source Quantum ESPRESSO suite
     for quantum simulation of materials; please cite
         "P. Giannozzi et al., J. Phys.:Condens. Matter 21 395502 (2009);
         "P. Giannozzi et al., J. Phys.:Condens. Matter 29 465901 (2017);
         "P. Giannozzi et al., J. Chem. Phys. 152 154105 (2020);
          URL http://www.quantum-espresso.org", 
     in publications or presentations arising from this work. More details at
     http://www.quantum-espresso.org/quote

     Parallel version (MPI & OpenMP), running on      16 processor cores
     Number of MPI processes:                16
     Threads/MPI process:                     1

     MPI processes distributed on     4 nodes
     K-points division:     npool     =       4
     R & G space division:  proc/nbgrp/npool/nimage =       4
     236841 MiB available memory on the printing compute node when the environment starts
 
     Waiting for input...
     Reading input from standard input

     Current dimensions of program PWSCF are:
     Max number of different atomic species (ntypx) = 10
     Max number of k-points (npk) =  40000
     Max angular momentum in pseudopotentials (lmaxx) =  4
     Presently no symmetry can be used with electric field

     Message from routine iosys:
     restart disabled: needed files not found

     IMPORTANT: XC functional enforced from input :
     Exchange-correlation= VDW-DF-C09
                           (   1   4  16   0   1   0   0)
     Any further DFT definition will be discarded
     Please, verify this is what you really want


     Subspace diagonalization in iterative solution of the eigenvalue problem:
     a serial algorithm will be used

 
     Parallelization info
     --------------------
     sticks:   dense  smooth     PW     G-vecs:    dense   smooth      PW
     Min         241     241     75                39015    39015    6623
     Max         244     244     76                39020    39020    6638
     Sum         967     967    301               156067   156067   26521
 
     Using Slab Decomposition
 


     bravais-lattice index     =            0
     lattice parameter (alat)  =       5.9449  a.u.
     unit-cell volume          =    1156.7915 (a.u.)^3
     number of atoms/cell      =            3
     number of atomic types    =            2
     number of electrons       =        26.00
     number of Kohn-Sham states=           17
     kinetic-energy cutoff     =     100.0000  Ry
     charge density cutoff     =     400.0000  Ry
     scf convergence threshold =      1.0E-08
     mixing beta               =       0.3000
     number of iterations used =            8  local-TF  mixing
     Exchange-correlation= VDW-DF-C09
                           (   1   4  16   0   1   0   0)

     GPU acceleration is ACTIVE.


     GPU used by master process:

        Device Number: 0
        Device name: NVIDIA A100-SXM4-40GB
        Compute capability : 80
        Ratio of single to double precision performance  : 2
        Memory Clock Rate (KHz): 1215000
        Memory Bus Width (bits): 5120
        Peak Memory Bandwidth (GB/s): ******

     celldm(1)=   5.944944  celldm(2)=   0.000000  celldm(3)=   0.000000
     celldm(4)=   0.000000  celldm(5)=   0.000000  celldm(6)=   0.000000

     crystal axes: (cart. coord. in units of alat)
               a(1) = (   1.000000   0.000000  -0.000000 )  
               a(2) = (  -0.500000   0.866025  -0.000000 )  
               a(3) = (  -0.000000   0.000000   6.357422 )  

     reciprocal axes: (cart. coord. in units 2 pi/alat)
               b(1) = (  1.000000  0.577350  0.000000 )  
               b(2) = ( -0.000000  1.154701 -0.000000 )  
               b(3) = (  0.000000  0.000000  0.157296 )  


     PseudoPot. # 1 for Mo read from file:
     /global/homes/j/jdgeorga/espresso/pseudo_new/Mo_ONCV_PBE-1.2.upf
     MD5 check sum: 2665c9f4159700498d9a5f7573bd8e9f
     Pseudo is Norm-conserving, Zval = 14.0
     Generated using ONCVPSP code by D. R. Hamann
     Using radial grid of  602 points,  6 beta functions with: 
                l(1) =   0
                l(2) =   0
                l(3) =   1
                l(4) =   1
                l(5) =   2
                l(6) =   2

     PseudoPot. # 2 for S  read from file:
     /global/homes/j/jdgeorga/espresso/pseudo_new/S_ONCV_PBE-1.2.upf
     MD5 check sum: f9d020296ee6110346977bfd66d424f6
     Pseudo is Norm-conserving, Zval =  6.0
     Generated using ONCVPSP code by D. R. Hamann
     Using radial grid of  602 points,  4 beta functions with: 
                l(1) =   0
                l(2) =   0
                l(3) =   1
                l(4) =   1

     atomic species   valence    mass     pseudopotential
        Mo            14.00    95.94000     Mo( 1.00)
        S              6.00    78.96000     S ( 1.00)

     No symmetry found


                                    s                        frac. trans.

      isym =  1     identity                                     

 cryst.   s( 1) = (     1          0          0      )
                  (     0          1          0      )
                  (     0          0          1      )

 cart.    s( 1) = (  1.0000000  0.0000000  0.0000000 )
                  (  0.0000000  1.0000000  0.0000000 )
                  (  0.0000000  0.0000000  1.0000000 )


   Cartesian axes

     site n.     atom                  positions (alat units)
         1           Mo  tau(   1) = (   0.0000000   0.5773503   2.2771818  )
         2           S   tau(   2) = (   0.5000000   0.2886751   2.7734096  )
         3           S   tau(   3) = (   0.5000000   0.2886751   1.7715591  )

   Crystallographic axes

     site n.     atom                  positions (cryst. coord.)
         1           Mo  tau(   1) = (  0.3333333  0.6666667  0.3581926  )
         2           S   tau(   2) = (  0.6666667  0.3333333  0.4362475  )
         3           S   tau(   3) = (  0.6666667  0.3333333  0.2786600  )

     number of k points=    74  Gaussian smearing, width (Ry)=  0.0100
                       cart. coord. in units 2pi/alat
        k(    1) = (   0.0000000   0.0000000   0.0000000), wk =   0.0138889
        k(    2) = (   0.0000000   0.0962250   0.0000000), wk =   0.0277778
        k(    3) = (   0.0000000   0.1924501   0.0000000), wk =   0.0277778
        k(    4) = (   0.0000000   0.2886751   0.0000000), wk =   0.0277778
        k(    5) = (   0.0000000   0.3849002   0.0000000), wk =   0.0277778
        k(    6) = (   0.0000000   0.4811252   0.0000000), wk =   0.0277778
        k(    7) = (   0.0000000  -0.5773503   0.0000000), wk =   0.0138889
        k(    8) = (   0.0833333   0.0481125   0.0000000), wk =   0.0277778
        k(    9) = (   0.0833333   0.1443376   0.0000000), wk =   0.0277778
        k(   10) = (   0.0833333   0.2405626   0.0000000), wk =   0.0277778
        k(   11) = (   0.0833333   0.3367877   0.0000000), wk =   0.0277778
        k(   12) = (   0.0833333   0.4330127   0.0000000), wk =   0.0277778
        k(   13) = (   0.0833333   0.5292377   0.0000000), wk =   0.0277778
        k(   14) = (   0.0833333  -0.5292377   0.0000000), wk =   0.0277778
        k(   15) = (   0.0833333  -0.4330127   0.0000000), wk =   0.0277778
        k(   16) = (   0.0833333  -0.3367877   0.0000000), wk =   0.0277778
        k(   17) = (   0.0833333  -0.2405626   0.0000000), wk =   0.0277778
        k(   18) = (   0.0833333  -0.1443376   0.0000000), wk =   0.0277778
        k(   19) = (   0.0833333  -0.0481125   0.0000000), wk =   0.0277778
        k(   20) = (   0.1666667   0.0962250   0.0000000), wk =   0.0277778
        k(   21) = (   0.1666667   0.1924501   0.0000000), wk =   0.0277778
        k(   22) = (   0.1666667   0.2886751   0.0000000), wk =   0.0277778
        k(   23) = (   0.1666667   0.3849002   0.0000000), wk =   0.0277778
        k(   24) = (   0.1666667   0.4811252   0.0000000), wk =   0.0277778
        k(   25) = (   0.1666667   0.5773503   0.0000000), wk =   0.0277778
        k(   26) = (   0.1666667  -0.4811252   0.0000000), wk =   0.0277778
        k(   27) = (   0.1666667  -0.3849002   0.0000000), wk =   0.0277778
        k(   28) = (   0.1666667  -0.2886751   0.0000000), wk =   0.0277778
        k(   29) = (   0.1666667  -0.1924501   0.0000000), wk =   0.0277778
        k(   30) = (   0.1666667  -0.0962250   0.0000000), wk =   0.0277778
        k(   31) = (   0.1666667  -0.0000000   0.0000000), wk =   0.0277778
        k(   32) = (   0.2500000   0.1443376   0.0000000), wk =   0.0277778
        k(   33) = (   0.2500000   0.2405626   0.0000000), wk =   0.0277778
        k(   34) = (   0.2500000   0.3367877   0.0000000), wk =   0.0277778
        k(   35) = (   0.2500000   0.4330127   0.0000000), wk =   0.0277778
        k(   36) = (   0.2500000   0.5292377   0.0000000), wk =   0.0277778
        k(   37) = (   0.2500000   0.6254628   0.0000000), wk =   0.0277778
        k(   38) = (   0.2500000  -0.4330127   0.0000000), wk =   0.0277778
        k(   39) = (   0.2500000  -0.3367877   0.0000000), wk =   0.0277778
        k(   40) = (   0.2500000  -0.2405626   0.0000000), wk =   0.0277778
        k(   41) = (   0.2500000  -0.1443376   0.0000000), wk =   0.0277778
        k(   42) = (   0.2500000  -0.0481125   0.0000000), wk =   0.0277778
        k(   43) = (   0.2500000   0.0481125   0.0000000), wk =   0.0277778
        k(   44) = (   0.3333333   0.1924501   0.0000000), wk =   0.0277778
        k(   45) = (   0.3333333   0.2886751   0.0000000), wk =   0.0277778
        k(   46) = (   0.3333333   0.3849002   0.0000000), wk =   0.0277778
        k(   47) = (   0.3333333   0.4811252   0.0000000), wk =   0.0277778
        k(   48) = (   0.3333333   0.5773503   0.0000000), wk =   0.0277778
        k(   49) = (   0.3333333   0.6735753   0.0000000), wk =   0.0277778
        k(   50) = (   0.3333333  -0.3849002   0.0000000), wk =   0.0277778
        k(   51) = (   0.3333333  -0.2886751   0.0000000), wk =   0.0277778
        k(   52) = (   0.3333333  -0.1924501   0.0000000), wk =   0.0277778
        k(   53) = (   0.3333333  -0.0962250   0.0000000), wk =   0.0277778
        k(   54) = (   0.3333333   0.0000000   0.0000000), wk =   0.0277778
        k(   55) = (   0.3333333   0.0962250   0.0000000), wk =   0.0277778
        k(   56) = (   0.4166667   0.2405626   0.0000000), wk =   0.0277778
        k(   57) = (   0.4166667   0.3367877   0.0000000), wk =   0.0277778
        k(   58) = (   0.4166667   0.4330127   0.0000000), wk =   0.0277778
        k(   59) = (   0.4166667   0.5292377   0.0000000), wk =   0.0277778
        k(   60) = (   0.4166667   0.6254628   0.0000000), wk =   0.0277778
        k(   61) = (   0.4166667   0.7216878   0.0000000), wk =   0.0277778
        k(   62) = (   0.4166667  -0.3367877   0.0000000), wk =   0.0277778
        k(   63) = (   0.4166667  -0.2405626   0.0000000), wk =   0.0277778
        k(   64) = (   0.4166667  -0.1443376   0.0000000), wk =   0.0277778
        k(   65) = (   0.4166667  -0.0481125   0.0000000), wk =   0.0277778
        k(   66) = (   0.4166667   0.0481125   0.0000000), wk =   0.0277778
        k(   67) = (   0.4166667   0.1443376   0.0000000), wk =   0.0277778
        k(   68) = (  -0.5000000  -0.2886751   0.0000000), wk =   0.0138889
        k(   69) = (  -0.5000000  -0.1924501   0.0000000), wk =   0.0277778
        k(   70) = (  -0.5000000  -0.0962250   0.0000000), wk =   0.0277778
        k(   71) = (  -0.5000000   0.0000000   0.0000000), wk =   0.0277778
        k(   72) = (  -0.5000000   0.0962250   0.0000000), wk =   0.0277778
        k(   73) = (  -0.5000000   0.1924501   0.0000000), wk =   0.0277778
        k(   74) = (  -0.5000000  -0.8660254   0.0000000), wk =   0.0138889

                       cryst. coord.
        k(    1) = (   0.0000000   0.0000000   0.0000000), wk =   0.0138889
        k(    2) = (   0.0000000   0.0833333   0.0000000), wk =   0.0277778
        k(    3) = (   0.0000000   0.1666667   0.0000000), wk =   0.0277778
        k(    4) = (   0.0000000   0.2500000   0.0000000), wk =   0.0277778
        k(    5) = (   0.0000000   0.3333333   0.0000000), wk =   0.0277778
        k(    6) = (   0.0000000   0.4166667   0.0000000), wk =   0.0277778
        k(    7) = (   0.0000000  -0.5000000   0.0000000), wk =   0.0138889
        k(    8) = (   0.0833333  -0.0000000   0.0000000), wk =   0.0277778
        k(    9) = (   0.0833333   0.0833333   0.0000000), wk =   0.0277778
        k(   10) = (   0.0833333   0.1666667   0.0000000), wk =   0.0277778
        k(   11) = (   0.0833333   0.2500000   0.0000000), wk =   0.0277778
        k(   12) = (   0.0833333   0.3333333   0.0000000), wk =   0.0277778
        k(   13) = (   0.0833333   0.4166667   0.0000000), wk =   0.0277778
        k(   14) = (   0.0833333  -0.5000000   0.0000000), wk =   0.0277778
        k(   15) = (   0.0833333  -0.4166667   0.0000000), wk =   0.0277778
        k(   16) = (   0.0833333  -0.3333333   0.0000000), wk =   0.0277778
        k(   17) = (   0.0833333  -0.2500000   0.0000000), wk =   0.0277778
        k(   18) = (   0.0833333  -0.1666667   0.0000000), wk =   0.0277778
        k(   19) = (   0.0833333  -0.0833333   0.0000000), wk =   0.0277778
        k(   20) = (   0.1666667  -0.0000000   0.0000000), wk =   0.0277778
        k(   21) = (   0.1666667   0.0833333   0.0000000), wk =   0.0277778
        k(   22) = (   0.1666667   0.1666667   0.0000000), wk =   0.0277778
        k(   23) = (   0.1666667   0.2500000   0.0000000), wk =   0.0277778
        k(   24) = (   0.1666667   0.3333333   0.0000000), wk =   0.0277778
        k(   25) = (   0.1666667   0.4166667   0.0000000), wk =   0.0277778
        k(   26) = (   0.1666667  -0.5000000   0.0000000), wk =   0.0277778
        k(   27) = (   0.1666667  -0.4166667   0.0000000), wk =   0.0277778
        k(   28) = (   0.1666667  -0.3333333   0.0000000), wk =   0.0277778
        k(   29) = (   0.1666667  -0.2500000   0.0000000), wk =   0.0277778
        k(   30) = (   0.1666667  -0.1666667   0.0000000), wk =   0.0277778
        k(   31) = (   0.1666667  -0.0833333   0.0000000), wk =   0.0277778
        k(   32) = (   0.2500000  -0.0000000   0.0000000), wk =   0.0277778
        k(   33) = (   0.2500000   0.0833333   0.0000000), wk =   0.0277778
        k(   34) = (   0.2500000   0.1666667   0.0000000), wk =   0.0277778
        k(   35) = (   0.2500000   0.2500000   0.0000000), wk =   0.0277778
        k(   36) = (   0.2500000   0.3333333   0.0000000), wk =   0.0277778
        k(   37) = (   0.2500000   0.4166667   0.0000000), wk =   0.0277778
        k(   38) = (   0.2500000  -0.5000000   0.0000000), wk =   0.0277778
        k(   39) = (   0.2500000  -0.4166667   0.0000000), wk =   0.0277778
        k(   40) = (   0.2500000  -0.3333333   0.0000000), wk =   0.0277778
        k(   41) = (   0.2500000  -0.2500000   0.0000000), wk =   0.0277778
        k(   42) = (   0.2500000  -0.1666667   0.0000000), wk =   0.0277778
        k(   43) = (   0.2500000  -0.0833333   0.0000000), wk =   0.0277778
        k(   44) = (   0.3333333  -0.0000000   0.0000000), wk =   0.0277778
        k(   45) = (   0.3333333   0.0833333   0.0000000), wk =   0.0277778
        k(   46) = (   0.3333333   0.1666667   0.0000000), wk =   0.0277778
        k(   47) = (   0.3333333   0.2500000   0.0000000), wk =   0.0277778
        k(   48) = (   0.3333333   0.3333333   0.0000000), wk =   0.0277778
        k(   49) = (   0.3333333   0.4166667   0.0000000), wk =   0.0277778
        k(   50) = (   0.3333333  -0.5000000   0.0000000), wk =   0.0277778
        k(   51) = (   0.3333333  -0.4166667   0.0000000), wk =   0.0277778
        k(   52) = (   0.3333333  -0.3333333   0.0000000), wk =   0.0277778
        k(   53) = (   0.3333333  -0.2500000   0.0000000), wk =   0.0277778
        k(   54) = (   0.3333333  -0.1666667   0.0000000), wk =   0.0277778
        k(   55) = (   0.3333333  -0.0833333   0.0000000), wk =   0.0277778
        k(   56) = (   0.4166667  -0.0000000   0.0000000), wk =   0.0277778
        k(   57) = (   0.4166667   0.0833333   0.0000000), wk =   0.0277778
        k(   58) = (   0.4166667   0.1666667   0.0000000), wk =   0.0277778
        k(   59) = (   0.4166667   0.2500000   0.0000000), wk =   0.0277778
        k(   60) = (   0.4166667   0.3333333   0.0000000), wk =   0.0277778
        k(   61) = (   0.4166667   0.4166667   0.0000000), wk =   0.0277778
        k(   62) = (   0.4166667  -0.5000000   0.0000000), wk =   0.0277778
        k(   63) = (   0.4166667  -0.4166667   0.0000000), wk =   0.0277778
        k(   64) = (   0.4166667  -0.3333333   0.0000000), wk =   0.0277778
        k(   65) = (   0.4166667  -0.2500000   0.0000000), wk =   0.0277778
        k(   66) = (   0.4166667  -0.1666667   0.0000000), wk =   0.0277778
        k(   67) = (   0.4166667  -0.0833333   0.0000000), wk =   0.0277778
        k(   68) = (  -0.5000000   0.0000000   0.0000000), wk =   0.0138889
        k(   69) = (  -0.5000000   0.0833333   0.0000000), wk =   0.0277778
        k(   70) = (  -0.5000000   0.1666667   0.0000000), wk =   0.0277778
        k(   71) = (  -0.5000000   0.2500000   0.0000000), wk =   0.0277778
        k(   72) = (  -0.5000000   0.3333333   0.0000000), wk =   0.0277778
        k(   73) = (  -0.5000000   0.4166667   0.0000000), wk =   0.0277778
        k(   74) = (  -0.5000000  -0.5000000   0.0000000), wk =   0.0138889

     Dense  grid:   156067 G-vectors     FFT dimensions: (  40,  40, 243)

     Dynamical RAM for                 wfc:       1.27 MB

     Dynamical RAM for     wfc (w. buffer):       1.27 MB

     Dynamical RAM for           str. fact:       1.19 MB

     Dynamical RAM for           local pot:       0.00 MB

     Dynamical RAM for          nlocal pot:       2.53 MB

     Dynamical RAM for                qrad:       3.21 MB

     Dynamical RAM for          rho,v,vnew:       4.02 MB

     Dynamical RAM for               rhoin:       1.34 MB

     Dynamical RAM for            rho*nmix:       9.53 MB

     Dynamical RAM for           G-vectors:       2.53 MB

     Dynamical RAM for          h,s,v(r/c):       0.05 MB

     Dynamical RAM for          <psi|beta>:       0.01 MB

     Dynamical RAM for                 psi:       2.53 MB

     Dynamical RAM for                hpsi:       2.53 MB

     Dynamical RAM for      wfcinit/wfcrot:       2.54 MB

     Estimated static dynamical RAM per process >      21.60 MB

     Estimated max dynamical RAM per process >      47.95 MB

     Estimated total dynamical RAM >     652.82 MB
     Cannot read rho : file not found

     Initial potential from superposition of free atoms

     starting charge      25.8886, renormalised to      26.0000

     negative rho (up, down):  2.335E-04 0.000E+00


     %%%%%%%%%%%%%%%%%%%%%%%%%%%%%%%%%%%%%%%%%%%%%%%%%%%%%%%%%%%%%%%%%%%%%%%%
     %                                                                      %
     % You are using vdW-DF, which was implemented by the Thonhauser group. %
     % Please cite the following two papers that made this development      %
     % possible and the two reviews that describe the various versions:     %
     %                                                                      %
     %   T. Thonhauser et al., PRL 115, 136402 (2015).                      %
     %   T. Thonhauser et al., PRB 76, 125112 (2007).                       %
     %   K. Berland et al., Rep. Prog. Phys. 78, 066501 (2015).             %
     %   D.C. Langreth et al., J. Phys.: Condens. Matter 21, 084203 (2009). %
     %                                                                      %
     %                                                                      %
     % If you are calculating the stress with vdW-DF, please also cite:     %
     %                                                                      %
     %   R. Sabatini et al., J. Phys.: Condens. Matter 24, 424209 (2012).   %
     %                                                                      %
     %%%%%%%%%%%%%%%%%%%%%%%%%%%%%%%%%%%%%%%%%%%%%%%%%%%%%%%%%%%%%%%%%%%%%%%%


     Carrying out vdW-DF run using the following parameters:
     Nqs    =  20  Npoints =  1024  r_max =  100.000
     q_mesh =  0.00001000  0.04494208  0.09755937  0.15916263
               0.23128650  0.31572767  0.41458969  0.53033537
               0.66584808  0.82450364  1.01025438  1.22772762
               1.48234092  1.78043706  2.12944203  2.53805004
               3.01644009  3.57652955  4.23227104  5.00000000


     -----------------------------------------------
     Non-local corr. energy    =       0.24185587 Ry
     -----------------------------------------------

 
     Adding external electric field

     Computed dipole along edir(3) : 
        Elec. dipole          0.6175 Ry au,          1.5696 Debye
        Ion. dipole           0.6176 Ry au,          1.5697 Debye
        Dipole                0.0009 Ry au,          0.0022 Debye
        Dipole field          0.0000 Ry au, 
 
        Potential amp.       -0.0006 Ry
        Total length         34.0151 bohr
 
     Message from routine qexsd_readschema :
     xml data file ./tmp/bilayer.save/data-file-schema.xml not found
     Cannot read wfcs: file not found
     Starting wfcs are random

     total cpu time spent up to now is        5.9 secs

     Self-consistent Calculation
[tb_dev] Currently allocated     2.52E+01 Mbytes, locked:    0 /   9
[tb_pin] Currently allocated     1.02E-02 Mbytes, locked:    0 /   5

     iteration #  1     ecut=   100.00 Ry     beta= 0.30
     Davidson diagonalization with overlap

---- Real-time Memory Report at c_bands before calling an iterative solver
          1749 MiB given to the printing process from OS
             0 MiB allocation reported by mallinfo(arena+hblkhd)
        231449 MiB available memory on the node where the printing process lives
     GPU memory used/free/total (MiB): 2645 / 37692 / 40338
------------------
     c_bands:  2 eigenvalues not converged
     c_bands:  4 eigenvalues not converged
     c_bands:  1 eigenvalues not converged
     c_bands:  3 eigenvalues not converged
     c_bands:  2 eigenvalues not converged
     c_bands:  3 eigenvalues not converged
     c_bands:  4 eigenvalues not converged
     c_bands:  4 eigenvalues not converged
     c_bands:  4 eigenvalues not converged
     c_bands:  3 eigenvalues not converged
     c_bands:  5 eigenvalues not converged
     c_bands:  4 eigenvalues not converged
     c_bands:  4 eigenvalues not converged
     c_bands:  4 eigenvalues not converged
     ethr =  1.00E-05,  avg # of iterations = 20.9

     negative rho (up, down):  2.916E-07 0.000E+00


     -----------------------------------------------
     Non-local corr. energy    =       0.24134018 Ry
     -----------------------------------------------

 
     Adding external electric field

     Computed dipole along edir(3) : 
        Elec. dipole          0.6175 Ry au,          1.5696 Debye
        Ion. dipole           0.6176 Ry au,          1.5697 Debye
        Dipole                0.0037 Ry au,          0.0093 Debye
        Dipole field          0.0000 Ry au, 
 
        Potential amp.       -0.0027 Ry
        Total length         34.0151 bohr
 

     total cpu time spent up to now is        8.7 secs

     total energy              =    -178.22726362 Ry
     estimated scf accuracy    <       0.09365691 Ry
[tb_dev] Currently allocated     2.73E+00 Mbytes, locked:    0 /   9
[tb_pin] Currently allocated     6.44E-02 Mbytes, locked:    0 /   8

     iteration #  2     ecut=   100.00 Ry     beta= 0.30
     Davidson diagonalization with overlap

---- Real-time Memory Report at c_bands before calling an iterative solver
          1822 MiB given to the printing process from OS
             0 MiB allocation reported by mallinfo(arena+hblkhd)
        231297 MiB available memory on the node where the printing process lives
     GPU memory used/free/total (MiB): 2623 / 37714 / 40338
------------------
     ethr =  3.60E-04,  avg # of iterations =  1.0


     -----------------------------------------------
     Non-local corr. energy    =       0.24057587 Ry
     -----------------------------------------------

 
     Adding external electric field

     Computed dipole along edir(3) : 
        Elec. dipole          0.6174 Ry au,          1.5693 Debye
        Ion. dipole           0.6176 Ry au,          1.5697 Debye
        Dipole                0.0117 Ry au,          0.0296 Debye
        Dipole field          0.0001 Ry au, 
 
        Potential amp.       -0.0086 Ry
        Total length         34.0151 bohr
 

     total cpu time spent up to now is        9.4 secs

     total energy              =    -178.20881784 Ry
     estimated scf accuracy    <       0.05501283 Ry
[tb_dev] Currently allocated     2.73E+00 Mbytes, locked:    0 /   9
[tb_pin] Currently allocated     6.44E-02 Mbytes, locked:    0 /   8

     iteration #  3     ecut=   100.00 Ry     beta= 0.30
     Davidson diagonalization with overlap

---- Real-time Memory Report at c_bands before calling an iterative solver
          1822 MiB given to the printing process from OS
             0 MiB allocation reported by mallinfo(arena+hblkhd)
        231362 MiB available memory on the node where the printing process lives
     GPU memory used/free/total (MiB): 2623 / 37714 / 40338
------------------
     ethr =  2.12E-04,  avg # of iterations =  2.0


     -----------------------------------------------
     Non-local corr. energy    =       0.24061295 Ry
     -----------------------------------------------

 
     Adding external electric field

     Computed dipole along edir(3) : 
        Elec. dipole          0.6173 Ry au,          1.5691 Debye
        Ion. dipole           0.6176 Ry au,          1.5697 Debye
        Dipole                0.0198 Ry au,          0.0504 Debye
        Dipole field          0.0002 Ry au, 
 
        Potential amp.       -0.0146 Ry
        Total length         34.0151 bohr
 

     total cpu time spent up to now is       10.2 secs

     total energy              =    -178.21125095 Ry
     estimated scf accuracy    <       0.01335611 Ry
[tb_dev] Currently allocated     2.73E+00 Mbytes, locked:    0 /   9
[tb_pin] Currently allocated     6.44E-02 Mbytes, locked:    0 /   8

     iteration #  4     ecut=   100.00 Ry     beta= 0.30
     Davidson diagonalization with overlap

---- Real-time Memory Report at c_bands before calling an iterative solver
          1822 MiB given to the printing process from OS
             0 MiB allocation reported by mallinfo(arena+hblkhd)
        231282 MiB available memory on the node where the printing process lives
     GPU memory used/free/total (MiB): 2623 / 37714 / 40338
------------------
     ethr =  5.14E-05,  avg # of iterations =  2.0


     -----------------------------------------------
     Non-local corr. energy    =       0.24081098 Ry
     -----------------------------------------------

 
     Adding external electric field

     Computed dipole along edir(3) : 
        Elec. dipole          0.6173 Ry au,          1.5690 Debye
        Ion. dipole           0.6176 Ry au,          1.5697 Debye
        Dipole                0.0228 Ry au,          0.0579 Debye
        Dipole field          0.0002 Ry au, 
 
        Potential amp.       -0.0168 Ry
        Total length         34.0151 bohr
 

     total cpu time spent up to now is       10.9 secs

     total energy              =    -178.21262966 Ry
     estimated scf accuracy    <       0.00153659 Ry
[tb_dev] Currently allocated     2.73E+00 Mbytes, locked:    0 /   9
[tb_pin] Currently allocated     6.44E-02 Mbytes, locked:    0 /   8

     iteration #  5     ecut=   100.00 Ry     beta= 0.30
     Davidson diagonalization with overlap

---- Real-time Memory Report at c_bands before calling an iterative solver
          1822 MiB given to the printing process from OS
             0 MiB allocation reported by mallinfo(arena+hblkhd)
        231354 MiB available memory on the node where the printing process lives
     GPU memory used/free/total (MiB): 2623 / 37714 / 40338
------------------
     ethr =  5.91E-06,  avg # of iterations =  2.3


     -----------------------------------------------
     Non-local corr. energy    =       0.24241966 Ry
     -----------------------------------------------

 
     Adding external electric field

     Computed dipole along edir(3) : 
        Elec. dipole          0.6172 Ry au,          1.5688 Debye
        Ion. dipole           0.6176 Ry au,          1.5697 Debye
        Dipole                0.0322 Ry au,          0.0818 Debye
        Dipole field          0.0003 Ry au, 
 
        Potential amp.       -0.0238 Ry
        Total length         34.0151 bohr
 

     total cpu time spent up to now is       11.6 secs

     total energy              =    -178.21197960 Ry
     estimated scf accuracy    <       0.00103896 Ry
[tb_dev] Currently allocated     2.73E+00 Mbytes, locked:    0 /   9
[tb_pin] Currently allocated     6.44E-02 Mbytes, locked:    0 /   8

     iteration #  6     ecut=   100.00 Ry     beta= 0.30
     Davidson diagonalization with overlap

---- Real-time Memory Report at c_bands before calling an iterative solver
          1822 MiB given to the printing process from OS
             0 MiB allocation reported by mallinfo(arena+hblkhd)
        231341 MiB available memory on the node where the printing process lives
     GPU memory used/free/total (MiB): 2623 / 37714 / 40338
------------------
     ethr =  4.00E-06,  avg # of iterations =  3.4


     -----------------------------------------------
     Non-local corr. energy    =       0.24240180 Ry
     -----------------------------------------------

 
     Adding external electric field

     Computed dipole along edir(3) : 
        Elec. dipole          0.6172 Ry au,          1.5687 Debye
        Ion. dipole           0.6176 Ry au,          1.5697 Debye
        Dipole                0.0340 Ry au,          0.0865 Debye
        Dipole field          0.0004 Ry au, 
 
        Potential amp.       -0.0252 Ry
        Total length         34.0151 bohr
 

     total cpu time spent up to now is       12.4 secs

     total energy              =    -178.21179459 Ry
     estimated scf accuracy    <       0.00040780 Ry
[tb_dev] Currently allocated     2.73E+00 Mbytes, locked:    0 /   9
[tb_pin] Currently allocated     6.44E-02 Mbytes, locked:    0 /   8

     iteration #  7     ecut=   100.00 Ry     beta= 0.30
     Davidson diagonalization with overlap

---- Real-time Memory Report at c_bands before calling an iterative solver
          1822 MiB given to the printing process from OS
             0 MiB allocation reported by mallinfo(arena+hblkhd)
        231338 MiB available memory on the node where the printing process lives
     GPU memory used/free/total (MiB): 2623 / 37714 / 40338
------------------
     ethr =  1.57E-06,  avg # of iterations =  2.5

     negative rho (up, down):  1.184E-05 0.000E+00


     -----------------------------------------------
     Non-local corr. energy    =       0.24271712 Ry
     -----------------------------------------------

 
     Adding external electric field

     Computed dipole along edir(3) : 
        Elec. dipole          0.6172 Ry au,          1.5687 Debye
        Ion. dipole           0.6176 Ry au,          1.5697 Debye
        Dipole                0.0333 Ry au,          0.0847 Debye
        Dipole field          0.0004 Ry au, 
 
        Potential amp.       -0.0246 Ry
        Total length         34.0151 bohr
 

     total cpu time spent up to now is       13.6 secs

     total energy              =    -178.21269727 Ry
     estimated scf accuracy    <       0.00035328 Ry
[tb_dev] Currently allocated     2.73E+00 Mbytes, locked:    0 /   9
[tb_pin] Currently allocated     6.44E-02 Mbytes, locked:    0 /   8

     iteration #  8     ecut=   100.00 Ry     beta= 0.30
     Davidson diagonalization with overlap

---- Real-time Memory Report at c_bands before calling an iterative solver
          1822 MiB given to the printing process from OS
             0 MiB allocation reported by mallinfo(arena+hblkhd)
        231336 MiB available memory on the node where the printing process lives
     GPU memory used/free/total (MiB): 2623 / 37714 / 40338
------------------
     ethr =  1.36E-06,  avg # of iterations =  3.1


     -----------------------------------------------
     Non-local corr. energy    =       0.24217873 Ry
     -----------------------------------------------

 
     Adding external electric field

     Computed dipole along edir(3) : 
        Elec. dipole          0.6173 Ry au,          1.5690 Debye
        Ion. dipole           0.6176 Ry au,          1.5697 Debye
        Dipole                0.0227 Ry au,          0.0576 Debye
        Dipole field          0.0002 Ry au, 
 
        Potential amp.       -0.0167 Ry
        Total length         34.0151 bohr
 

     total cpu time spent up to now is       14.9 secs

     total energy              =    -178.21338402 Ry
     estimated scf accuracy    <       0.00010581 Ry
[tb_dev] Currently allocated     2.73E+00 Mbytes, locked:    0 /   9
[tb_pin] Currently allocated     6.44E-02 Mbytes, locked:    0 /   8

     iteration #  9     ecut=   100.00 Ry     beta= 0.30
     Davidson diagonalization with overlap

---- Real-time Memory Report at c_bands before calling an iterative solver
          1823 MiB given to the printing process from OS
             0 MiB allocation reported by mallinfo(arena+hblkhd)
        231336 MiB available memory on the node where the printing process lives
     GPU memory used/free/total (MiB): 2623 / 37714 / 40338
------------------
     ethr =  4.07E-07,  avg # of iterations = 14.6


     -----------------------------------------------
     Non-local corr. energy    =       0.24208246 Ry
     -----------------------------------------------

 
     Adding external electric field

     Computed dipole along edir(3) : 
        Elec. dipole          0.6173 Ry au,          1.5691 Debye
        Ion. dipole           0.6176 Ry au,          1.5697 Debye
        Dipole                0.0203 Ry au,          0.0516 Debye
        Dipole field          0.0002 Ry au, 
 
        Potential amp.       -0.0150 Ry
        Total length         34.0151 bohr
 

     total cpu time spent up to now is       16.7 secs

     total energy              =    -177.55976580 Ry
     estimated scf accuracy    <       0.68311529 Ry
[tb_dev] Currently allocated     2.73E+00 Mbytes, locked:    0 /   9
[tb_pin] Currently allocated     6.44E-02 Mbytes, locked:    0 /   8

     iteration # 10     ecut=   100.00 Ry     beta= 0.30
     Davidson diagonalization with overlap

---- Real-time Memory Report at c_bands before calling an iterative solver
          1823 MiB given to the printing process from OS
             0 MiB allocation reported by mallinfo(arena+hblkhd)
        231338 MiB available memory on the node where the printing process lives
     GPU memory used/free/total (MiB): 2623 / 37714 / 40338
------------------
     c_bands:  1 eigenvalues not converged
     c_bands:  1 eigenvalues not converged
     c_bands:  1 eigenvalues not converged
     c_bands:  2 eigenvalues not converged
     c_bands:  1 eigenvalues not converged
     c_bands:  1 eigenvalues not converged
     c_bands:  1 eigenvalues not converged
     c_bands:  1 eigenvalues not converged
     c_bands:  1 eigenvalues not converged
     c_bands:  1 eigenvalues not converged
     c_bands:  2 eigenvalues not converged
     ethr =  4.07E-07,  avg # of iterations = 18.4


     -----------------------------------------------
     Non-local corr. energy    =       0.24179910 Ry
     -----------------------------------------------

 
     Adding external electric field

     Computed dipole along edir(3) : 
        Elec. dipole          0.6175 Ry au,          1.5694 Debye
        Ion. dipole           0.6176 Ry au,          1.5697 Debye
        Dipole                0.0083 Ry au,          0.0212 Debye
        Dipole field          0.0001 Ry au, 
 
        Potential amp.       -0.0062 Ry
        Total length         34.0151 bohr
 

     total cpu time spent up to now is       18.2 secs

     total energy              =    -178.21258261 Ry
     estimated scf accuracy    <       0.00013231 Ry
[tb_dev] Currently allocated     2.73E+00 Mbytes, locked:    0 /   9
[tb_pin] Currently allocated     6.44E-02 Mbytes, locked:    0 /   8

     iteration # 11     ecut=   100.00 Ry     beta= 0.30
     Davidson diagonalization with overlap

---- Real-time Memory Report at c_bands before calling an iterative solver
          1823 MiB given to the printing process from OS
             0 MiB allocation reported by mallinfo(arena+hblkhd)
        231343 MiB available memory on the node where the printing process lives
     GPU memory used/free/total (MiB): 2623 / 37714 / 40338
------------------
     c_bands:  2 eigenvalues not converged
     c_bands:  1 eigenvalues not converged
     c_bands:  1 eigenvalues not converged
     ethr =  4.07E-07,  avg # of iterations =  6.7

     negative rho (up, down):  3.902E-05 0.000E+00


     -----------------------------------------------
     Non-local corr. energy    =       0.24182370 Ry
     -----------------------------------------------

 
     Adding external electric field

     Computed dipole along edir(3) : 
        Elec. dipole          0.6173 Ry au,          1.5691 Debye
        Ion. dipole           0.6176 Ry au,          1.5697 Debye
        Dipole                0.0192 Ry au,          0.0489 Debye
        Dipole field          0.0002 Ry au, 
 
        Potential amp.       -0.0142 Ry
        Total length         34.0151 bohr
 

     total cpu time spent up to now is       19.7 secs

     total energy              =    -178.21279706 Ry
     estimated scf accuracy    <       0.00013228 Ry
[tb_dev] Currently allocated     2.73E+00 Mbytes, locked:    0 /   9
[tb_pin] Currently allocated     6.44E-02 Mbytes, locked:    0 /   8

     iteration # 12     ecut=   100.00 Ry     beta= 0.30
     Davidson diagonalization with overlap

---- Real-time Memory Report at c_bands before calling an iterative solver
          1823 MiB given to the printing process from OS
             0 MiB allocation reported by mallinfo(arena+hblkhd)
        231348 MiB available memory on the node where the printing process lives
     GPU memory used/free/total (MiB): 2623 / 37714 / 40338
------------------
     c_bands:  1 eigenvalues not converged
     c_bands:  2 eigenvalues not converged
     c_bands:  1 eigenvalues not converged
     ethr =  4.07E-07,  avg # of iterations =  2.4

     negative rho (up, down):  6.374E-05 0.000E+00


     -----------------------------------------------
     Non-local corr. energy    =       0.24175445 Ry
     -----------------------------------------------

 
     Adding external electric field

     Computed dipole along edir(3) : 
        Elec. dipole          0.6180 Ry au,          1.5707 Debye
        Ion. dipole           0.6176 Ry au,          1.5697 Debye
        Dipole               -0.0384 Ry au,         -0.0977 Debye
        Dipole field         -0.0004 Ry au, 
 
        Potential amp.        0.0284 Ry
        Total length         34.0151 bohr
 

     total cpu time spent up to now is       21.1 secs

     total energy              =    -178.21224876 Ry
     estimated scf accuracy    <       0.00010378 Ry
[tb_dev] Currently allocated     2.73E+00 Mbytes, locked:    0 /   9
[tb_pin] Currently allocated     6.44E-02 Mbytes, locked:    0 /   8

     iteration # 13     ecut=   100.00 Ry     beta= 0.30
     Davidson diagonalization with overlap

---- Real-time Memory Report at c_bands before calling an iterative solver
          1823 MiB given to the printing process from OS
             0 MiB allocation reported by mallinfo(arena+hblkhd)
        231356 MiB available memory on the node where the printing process lives
     GPU memory used/free/total (MiB): 2623 / 37714 / 40338
------------------
     ethr =  3.99E-07,  avg # of iterations =  2.4

     negative rho (up, down):  4.030E-04 0.000E+00


     -----------------------------------------------
     Non-local corr. energy    =       0.24184180 Ry
     -----------------------------------------------

 
     Adding external electric field

     Computed dipole along edir(3) : 
        Elec. dipole          0.6184 Ry au,          1.5719 Debye
        Ion. dipole           0.6176 Ry au,          1.5697 Debye
        Dipole               -0.0817 Ry au,         -0.2075 Debye
        Dipole field         -0.0009 Ry au, 
 
        Potential amp.        0.0603 Ry
        Total length         34.0151 bohr
 

     total cpu time spent up to now is       22.1 secs

     total energy              =    -178.21225613 Ry
     estimated scf accuracy    <       0.00042835 Ry
[tb_dev] Currently allocated     2.73E+00 Mbytes, locked:    0 /   9
[tb_pin] Currently allocated     6.44E-02 Mbytes, locked:    0 /   8

     iteration # 14     ecut=   100.00 Ry     beta= 0.30
     Davidson diagonalization with overlap

---- Real-time Memory Report at c_bands before calling an iterative solver
          1823 MiB given to the printing process from OS
             0 MiB allocation reported by mallinfo(arena+hblkhd)
        231365 MiB available memory on the node where the printing process lives
     GPU memory used/free/total (MiB): 2623 / 37714 / 40338
------------------
     ethr =  3.99E-07,  avg # of iterations =  2.3

     negative rho (up, down):  3.213E-04 0.000E+00


     -----------------------------------------------
     Non-local corr. energy    =       0.24186129 Ry
     -----------------------------------------------

 
     Adding external electric field

     Computed dipole along edir(3) : 
        Elec. dipole          0.6186 Ry au,          1.5724 Debye
        Ion. dipole           0.6176 Ry au,          1.5697 Debye
        Dipole               -0.0998 Ry au,         -0.2537 Debye
        Dipole field         -0.0011 Ry au, 
 
        Potential amp.        0.0738 Ry
        Total length         34.0151 bohr
 

     total cpu time spent up to now is       23.2 secs

     total energy              =    -178.21223807 Ry
     estimated scf accuracy    <       0.00087286 Ry
[tb_dev] Currently allocated     2.73E+00 Mbytes, locked:    0 /   9
[tb_pin] Currently allocated     6.44E-02 Mbytes, locked:    0 /   8

     iteration # 15     ecut=   100.00 Ry     beta= 0.30
     Davidson diagonalization with overlap

---- Real-time Memory Report at c_bands before calling an iterative solver
          1823 MiB given to the printing process from OS
             0 MiB allocation reported by mallinfo(arena+hblkhd)
        231367 MiB available memory on the node where the printing process lives
     GPU memory used/free/total (MiB): 2623 / 37714 / 40338
------------------
     ethr =  3.99E-07,  avg # of iterations =  1.8

     negative rho (up, down):  2.233E-04 0.000E+00


     -----------------------------------------------
     Non-local corr. energy    =       0.24184736 Ry
     -----------------------------------------------

 
     Adding external electric field

     Computed dipole along edir(3) : 
        Elec. dipole          0.6186 Ry au,          1.5724 Debye
        Ion. dipole           0.6176 Ry au,          1.5697 Debye
        Dipole               -0.0988 Ry au,         -0.2512 Debye
        Dipole field         -0.0011 Ry au, 
 
        Potential amp.        0.0730 Ry
        Total length         34.0151 bohr
 

     total cpu time spent up to now is       24.9 secs

     total energy              =    -178.21225296 Ry
     estimated scf accuracy    <       0.00096539 Ry
[tb_dev] Currently allocated     2.73E+00 Mbytes, locked:    0 /   9
[tb_pin] Currently allocated     6.44E-02 Mbytes, locked:    0 /   8

     iteration # 16     ecut=   100.00 Ry     beta= 0.30
     Davidson diagonalization with overlap

---- Real-time Memory Report at c_bands before calling an iterative solver
          1823 MiB given to the printing process from OS
             0 MiB allocation reported by mallinfo(arena+hblkhd)
        231370 MiB available memory on the node where the printing process lives
     GPU memory used/free/total (MiB): 2623 / 37714 / 40338
------------------
     ethr =  3.99E-07,  avg # of iterations =  1.0

     negative rho (up, down):  3.944E-05 0.000E+00


     -----------------------------------------------
     Non-local corr. energy    =       0.24184155 Ry
     -----------------------------------------------

 
     Adding external electric field

     Computed dipole along edir(3) : 
        Elec. dipole          0.6187 Ry au,          1.5725 Debye
        Ion. dipole           0.6176 Ry au,          1.5697 Debye
        Dipole               -0.1038 Ry au,         -0.2638 Debye
        Dipole field         -0.0011 Ry au, 
 
        Potential amp.        0.0767 Ry
        Total length         34.0151 bohr
 

     total cpu time spent up to now is       26.4 secs

     total energy              =    -178.21227622 Ry
     estimated scf accuracy    <       0.00096279 Ry
[tb_dev] Currently allocated     2.73E+00 Mbytes, locked:    0 /   9
[tb_pin] Currently allocated     6.44E-02 Mbytes, locked:    0 /   8

     iteration # 17     ecut=   100.00 Ry     beta= 0.30
     Davidson diagonalization with overlap

---- Real-time Memory Report at c_bands before calling an iterative solver
          1823 MiB given to the printing process from OS
             0 MiB allocation reported by mallinfo(arena+hblkhd)
        231375 MiB available memory on the node where the printing process lives
     GPU memory used/free/total (MiB): 2623 / 37714 / 40338
------------------
     ethr =  3.99E-07,  avg # of iterations =  1.2


     -----------------------------------------------
     Non-local corr. energy    =       0.24183914 Ry
     -----------------------------------------------

 
     Adding external electric field

     Computed dipole along edir(3) : 
        Elec. dipole          0.6187 Ry au,          1.5725 Debye
        Ion. dipole           0.6176 Ry au,          1.5697 Debye
        Dipole               -0.1027 Ry au,         -0.2611 Debye
        Dipole field         -0.0011 Ry au, 
 
        Potential amp.        0.0759 Ry
        Total length         34.0151 bohr
 

     total cpu time spent up to now is       29.2 secs

     total energy              =    -178.21227611 Ry
     estimated scf accuracy    <       0.00104346 Ry
[tb_dev] Currently allocated     2.73E+00 Mbytes, locked:    0 /   9
[tb_pin] Currently allocated     6.44E-02 Mbytes, locked:    0 /   8

     iteration # 18     ecut=   100.00 Ry     beta= 0.30
     Davidson diagonalization with overlap

---- Real-time Memory Report at c_bands before calling an iterative solver
          1823 MiB given to the printing process from OS
             0 MiB allocation reported by mallinfo(arena+hblkhd)
        231380 MiB available memory on the node where the printing process lives
     GPU memory used/free/total (MiB): 2623 / 37714 / 40338
------------------
     ethr =  3.99E-07,  avg # of iterations =  1.0

     negative rho (up, down):  2.735E-04 0.000E+00


     -----------------------------------------------
     Non-local corr. energy    =       0.24195702 Ry
     -----------------------------------------------

 
     Adding external electric field

     Computed dipole along edir(3) : 
        Elec. dipole          0.6174 Ry au,          1.5693 Debye
        Ion. dipole           0.6176 Ry au,          1.5697 Debye
        Dipole                0.0113 Ry au,          0.0288 Debye
        Dipole field          0.0001 Ry au, 
 
        Potential amp.       -0.0084 Ry
        Total length         34.0151 bohr
 

     total cpu time spent up to now is       30.4 secs

     total energy              =    -178.21253422 Ry
     estimated scf accuracy    <       0.00102849 Ry
[tb_dev] Currently allocated     2.73E+00 Mbytes, locked:    0 /   9
[tb_pin] Currently allocated     6.44E-02 Mbytes, locked:    0 /   8

     iteration # 19     ecut=   100.00 Ry     beta= 0.30
     Davidson diagonalization with overlap

---- Real-time Memory Report at c_bands before calling an iterative solver
          1823 MiB given to the printing process from OS
             0 MiB allocation reported by mallinfo(arena+hblkhd)
        231383 MiB available memory on the node where the printing process lives
     GPU memory used/free/total (MiB): 2623 / 37714 / 40338
------------------
     ethr =  3.99E-07,  avg # of iterations =  2.8

     negative rho (up, down):  2.423E-04 0.000E+00


     -----------------------------------------------
     Non-local corr. energy    =       0.24199408 Ry
     -----------------------------------------------

 
     Adding external electric field

     Computed dipole along edir(3) : 
        Elec. dipole          0.6174 Ry au,          1.5693 Debye
        Ion. dipole           0.6176 Ry au,          1.5697 Debye
        Dipole                0.0126 Ry au,          0.0320 Debye
        Dipole field          0.0001 Ry au, 
 
        Potential amp.       -0.0093 Ry
        Total length         34.0151 bohr
 

     total cpu time spent up to now is       31.6 secs

     total energy              =    -178.21260720 Ry
     estimated scf accuracy    <       0.00007424 Ry
[tb_dev] Currently allocated     2.73E+00 Mbytes, locked:    0 /   9
[tb_pin] Currently allocated     6.44E-02 Mbytes, locked:    0 /   8

     iteration # 20     ecut=   100.00 Ry     beta= 0.30
     Davidson diagonalization with overlap

---- Real-time Memory Report at c_bands before calling an iterative solver
          1823 MiB given to the printing process from OS
             0 MiB allocation reported by mallinfo(arena+hblkhd)
        231385 MiB available memory on the node where the printing process lives
     GPU memory used/free/total (MiB): 2623 / 37714 / 40338
------------------
     ethr =  2.86E-07,  avg # of iterations =  1.0

     negative rho (up, down):  3.494E-04 0.000E+00


     -----------------------------------------------
     Non-local corr. energy    =       0.24203117 Ry
     -----------------------------------------------

 
     Adding external electric field

     Computed dipole along edir(3) : 
        Elec. dipole          0.6174 Ry au,          1.5693 Debye
        Ion. dipole           0.6176 Ry au,          1.5697 Debye
        Dipole                0.0120 Ry au,          0.0306 Debye
        Dipole field          0.0001 Ry au, 
 
        Potential amp.       -0.0089 Ry
        Total length         34.0151 bohr
 

     total cpu time spent up to now is       32.8 secs

     total energy              =    -178.21258746 Ry
     estimated scf accuracy    <       0.00006349 Ry
[tb_dev] Currently allocated     2.73E+00 Mbytes, locked:    0 /   9
[tb_pin] Currently allocated     6.44E-02 Mbytes, locked:    0 /   8

     iteration # 21     ecut=   100.00 Ry     beta= 0.30
     Davidson diagonalization with overlap

---- Real-time Memory Report at c_bands before calling an iterative solver
          1823 MiB given to the printing process from OS
             0 MiB allocation reported by mallinfo(arena+hblkhd)
        231389 MiB available memory on the node where the printing process lives
     GPU memory used/free/total (MiB): 2623 / 37714 / 40338
------------------
     ethr =  2.44E-07,  avg # of iterations =  1.1

     negative rho (up, down):  1.942E-04 0.000E+00


     -----------------------------------------------
     Non-local corr. energy    =       0.24200897 Ry
     -----------------------------------------------

 
     Adding external electric field

     Computed dipole along edir(3) : 
        Elec. dipole          0.6174 Ry au,          1.5693 Debye
        Ion. dipole           0.6176 Ry au,          1.5697 Debye
        Dipole                0.0118 Ry au,          0.0301 Debye
        Dipole field          0.0001 Ry au, 
 
        Potential amp.       -0.0087 Ry
        Total length         34.0151 bohr
 

     total cpu time spent up to now is       34.0 secs

     total energy              =    -178.21256790 Ry
     estimated scf accuracy    <       0.00007023 Ry
[tb_dev] Currently allocated     2.73E+00 Mbytes, locked:    0 /   9
[tb_pin] Currently allocated     6.44E-02 Mbytes, locked:    0 /   8

     iteration # 22     ecut=   100.00 Ry     beta= 0.30
     Davidson diagonalization with overlap

---- Real-time Memory Report at c_bands before calling an iterative solver
          1823 MiB given to the printing process from OS
             0 MiB allocation reported by mallinfo(arena+hblkhd)
        231389 MiB available memory on the node where the printing process lives
     GPU memory used/free/total (MiB): 2623 / 37714 / 40338
------------------
     ethr =  2.44E-07,  avg # of iterations =  1.3

     negative rho (up, down):  3.915E-04 0.000E+00


     -----------------------------------------------
     Non-local corr. energy    =       0.24204874 Ry
     -----------------------------------------------

 
     Adding external electric field

     Computed dipole along edir(3) : 
        Elec. dipole          0.6174 Ry au,          1.5693 Debye
        Ion. dipole           0.6176 Ry au,          1.5697 Debye
        Dipole                0.0145 Ry au,          0.0367 Debye
        Dipole field          0.0002 Ry au, 
 
        Potential amp.       -0.0107 Ry
        Total length         34.0151 bohr
 

     total cpu time spent up to now is       35.0 secs

     total energy              =    -178.21260059 Ry
     estimated scf accuracy    <       0.00006187 Ry
[tb_dev] Currently allocated     2.73E+00 Mbytes, locked:    0 /   9
[tb_pin] Currently allocated     6.44E-02 Mbytes, locked:    0 /   8

     iteration # 23     ecut=   100.00 Ry     beta= 0.30
     Davidson diagonalization with overlap

---- Real-time Memory Report at c_bands before calling an iterative solver
          1823 MiB given to the printing process from OS
             0 MiB allocation reported by mallinfo(arena+hblkhd)
        231397 MiB available memory on the node where the printing process lives
     GPU memory used/free/total (MiB): 2623 / 37714 / 40338
------------------
     ethr =  2.38E-07,  avg # of iterations =  1.1

     negative rho (up, down):  3.860E-04 0.000E+00


     -----------------------------------------------
     Non-local corr. energy    =       0.24206393 Ry
     -----------------------------------------------

 
     Adding external electric field

     Computed dipole along edir(3) : 
        Elec. dipole          0.6174 Ry au,          1.5692 Debye
        Ion. dipole           0.6176 Ry au,          1.5697 Debye
        Dipole                0.0163 Ry au,          0.0413 Debye
        Dipole field          0.0002 Ry au, 
 
        Potential amp.       -0.0120 Ry
        Total length         34.0151 bohr
 

     total cpu time spent up to now is       36.2 secs

     total energy              =    -178.21262596 Ry
     estimated scf accuracy    <       0.00005479 Ry
[tb_dev] Currently allocated     2.73E+00 Mbytes, locked:    0 /   9
[tb_pin] Currently allocated     6.44E-02 Mbytes, locked:    0 /   8

     iteration # 24     ecut=   100.00 Ry     beta= 0.30
     Davidson diagonalization with overlap

---- Real-time Memory Report at c_bands before calling an iterative solver
          1823 MiB given to the printing process from OS
             0 MiB allocation reported by mallinfo(arena+hblkhd)
        231399 MiB available memory on the node where the printing process lives
     GPU memory used/free/total (MiB): 2623 / 37714 / 40338
------------------
     ethr =  2.11E-07,  avg # of iterations =  1.1

     negative rho (up, down):  6.842E-04 0.000E+00


     -----------------------------------------------
     Non-local corr. energy    =       0.24203868 Ry
     -----------------------------------------------

 
     Adding external electric field

     Computed dipole along edir(3) : 
        Elec. dipole          0.6173 Ry au,          1.5691 Debye
        Ion. dipole           0.6176 Ry au,          1.5697 Debye
        Dipole                0.0191 Ry au,          0.0486 Debye
        Dipole field          0.0002 Ry au, 
 
        Potential amp.       -0.0141 Ry
        Total length         34.0151 bohr
 

     total cpu time spent up to now is       37.5 secs

     total energy              =    -178.21261822 Ry
     estimated scf accuracy    <       0.00005222 Ry
[tb_dev] Currently allocated     2.73E+00 Mbytes, locked:    0 /   9
[tb_pin] Currently allocated     6.44E-02 Mbytes, locked:    0 /   8

     iteration # 25     ecut=   100.00 Ry     beta= 0.30
     Davidson diagonalization with overlap

---- Real-time Memory Report at c_bands before calling an iterative solver
          1823 MiB given to the printing process from OS
             0 MiB allocation reported by mallinfo(arena+hblkhd)
        231404 MiB available memory on the node where the printing process lives
     GPU memory used/free/total (MiB): 2623 / 37714 / 40338
------------------
     ethr =  2.01E-07,  avg # of iterations =  1.6

     negative rho (up, down):  1.085E-03 0.000E+00


     -----------------------------------------------
     Non-local corr. energy    =       0.24197978 Ry
     -----------------------------------------------

 
     Adding external electric field

     Computed dipole along edir(3) : 
        Elec. dipole          0.6174 Ry au,          1.5692 Debye
        Ion. dipole           0.6176 Ry au,          1.5697 Debye
        Dipole                0.0177 Ry au,          0.0451 Debye
        Dipole field          0.0002 Ry au, 
 
        Potential amp.       -0.0131 Ry
        Total length         34.0151 bohr
 

     total cpu time spent up to now is       38.7 secs

     total energy              =    -178.21252580 Ry
     estimated scf accuracy    <       0.00004713 Ry
[tb_dev] Currently allocated     2.73E+00 Mbytes, locked:    0 /   9
[tb_pin] Currently allocated     6.44E-02 Mbytes, locked:    0 /   8

     iteration # 26     ecut=   100.00 Ry     beta= 0.30
     Davidson diagonalization with overlap

---- Real-time Memory Report at c_bands before calling an iterative solver
          1823 MiB given to the printing process from OS
             0 MiB allocation reported by mallinfo(arena+hblkhd)
        231410 MiB available memory on the node where the printing process lives
     GPU memory used/free/total (MiB): 2623 / 37714 / 40338
------------------
     ethr =  1.81E-07,  avg # of iterations =  1.8

     negative rho (up, down):  1.122E-03 0.000E+00


     -----------------------------------------------
     Non-local corr. energy    =       0.24195365 Ry
     -----------------------------------------------

 
     Adding external electric field

     Computed dipole along edir(3) : 
        Elec. dipole          0.6174 Ry au,          1.5692 Debye
        Ion. dipole           0.6176 Ry au,          1.5697 Debye
        Dipole                0.0172 Ry au,          0.0437 Debye
        Dipole field          0.0002 Ry au, 
 
        Potential amp.       -0.0127 Ry
        Total length         34.0151 bohr
 

     total cpu time spent up to now is       40.0 secs

     total energy              =    -178.21250116 Ry
     estimated scf accuracy    <       0.00004587 Ry
[tb_dev] Currently allocated     2.73E+00 Mbytes, locked:    0 /   9
[tb_pin] Currently allocated     6.44E-02 Mbytes, locked:    0 /   8

     iteration # 27     ecut=   100.00 Ry     beta= 0.30
     Davidson diagonalization with overlap

---- Real-time Memory Report at c_bands before calling an iterative solver
          1823 MiB given to the printing process from OS
             0 MiB allocation reported by mallinfo(arena+hblkhd)
        231415 MiB available memory on the node where the printing process lives
     GPU memory used/free/total (MiB): 2623 / 37714 / 40338
------------------
     ethr =  1.76E-07,  avg # of iterations =  1.5

     negative rho (up, down):  1.877E-03 0.000E+00


     -----------------------------------------------
     Non-local corr. energy    =       0.24187461 Ry
     -----------------------------------------------

 
     Adding external electric field

     Computed dipole along edir(3) : 
        Elec. dipole          0.6174 Ry au,          1.5692 Debye
        Ion. dipole           0.6176 Ry au,          1.5697 Debye
        Dipole                0.0148 Ry au,          0.0375 Debye
        Dipole field          0.0002 Ry au, 
 
        Potential amp.       -0.0109 Ry
        Total length         34.0151 bohr
 

     total cpu time spent up to now is       41.2 secs

     total energy              =    -178.21241557 Ry
     estimated scf accuracy    <       0.00004335 Ry
[tb_dev] Currently allocated     2.73E+00 Mbytes, locked:    0 /   9
[tb_pin] Currently allocated     6.44E-02 Mbytes, locked:    0 /   8

     iteration # 28     ecut=   100.00 Ry     beta= 0.30
     Davidson diagonalization with overlap

---- Real-time Memory Report at c_bands before calling an iterative solver
          1823 MiB given to the printing process from OS
             0 MiB allocation reported by mallinfo(arena+hblkhd)
        231416 MiB available memory on the node where the printing process lives
     GPU memory used/free/total (MiB): 2623 / 37714 / 40338
------------------
     ethr =  1.67E-07,  avg # of iterations =  1.4

     negative rho (up, down):  1.863E-03 0.000E+00


     -----------------------------------------------
     Non-local corr. energy    =       0.24187226 Ry
     -----------------------------------------------

 
     Adding external electric field

     Computed dipole along edir(3) : 
        Elec. dipole          0.6174 Ry au,          1.5693 Debye
        Ion. dipole           0.6176 Ry au,          1.5697 Debye
        Dipole                0.0126 Ry au,          0.0320 Debye
        Dipole field          0.0001 Ry au, 
 
        Potential amp.       -0.0093 Ry
        Total length         34.0151 bohr
 

     total cpu time spent up to now is       42.4 secs

     total energy              =    -178.21242420 Ry
     estimated scf accuracy    <       0.00003856 Ry
[tb_dev] Currently allocated     2.73E+00 Mbytes, locked:    0 /   9
[tb_pin] Currently allocated     6.44E-02 Mbytes, locked:    0 /   8

     iteration # 29     ecut=   100.00 Ry     beta= 0.30
     Davidson diagonalization with overlap

---- Real-time Memory Report at c_bands before calling an iterative solver
          1823 MiB given to the printing process from OS
             0 MiB allocation reported by mallinfo(arena+hblkhd)
        231420 MiB available memory on the node where the printing process lives
     GPU memory used/free/total (MiB): 2623 / 37714 / 40338
------------------
     ethr =  1.48E-07,  avg # of iterations =  1.4

     negative rho (up, down):  1.566E-03 0.000E+00


     -----------------------------------------------
     Non-local corr. energy    =       0.24193023 Ry
     -----------------------------------------------

 
     Adding external electric field

     Computed dipole along edir(3) : 
        Elec. dipole          0.6174 Ry au,          1.5693 Debye
        Ion. dipole           0.6176 Ry au,          1.5697 Debye
        Dipole                0.0114 Ry au,          0.0291 Debye
        Dipole field          0.0001 Ry au, 
 
        Potential amp.       -0.0085 Ry
        Total length         34.0151 bohr
 

     total cpu time spent up to now is       43.7 secs

     total energy              =    -178.21245099 Ry
     estimated scf accuracy    <       0.00003546 Ry
[tb_dev] Currently allocated     2.73E+00 Mbytes, locked:    0 /   9
[tb_pin] Currently allocated     6.44E-02 Mbytes, locked:    0 /   8

     iteration # 30     ecut=   100.00 Ry     beta= 0.30
     Davidson diagonalization with overlap

---- Real-time Memory Report at c_bands before calling an iterative solver
          1823 MiB given to the printing process from OS
             0 MiB allocation reported by mallinfo(arena+hblkhd)
        231422 MiB available memory on the node where the printing process lives
     GPU memory used/free/total (MiB): 2623 / 37714 / 40338
------------------
     ethr =  1.36E-07,  avg # of iterations =  1.4

     negative rho (up, down):  1.550E-03 0.000E+00


     -----------------------------------------------
     Non-local corr. energy    =       0.24194108 Ry
     -----------------------------------------------

 
     Adding external electric field

     Computed dipole along edir(3) : 
        Elec. dipole          0.6174 Ry au,          1.5693 Debye
        Ion. dipole           0.6176 Ry au,          1.5697 Debye
        Dipole                0.0116 Ry au,          0.0296 Debye
        Dipole field          0.0001 Ry au, 
 
        Potential amp.       -0.0086 Ry
        Total length         34.0151 bohr
 

     total cpu time spent up to now is       45.1 secs

     total energy              =    -178.21245922 Ry
     estimated scf accuracy    <       0.00003075 Ry
[tb_dev] Currently allocated     2.73E+00 Mbytes, locked:    0 /   9
[tb_pin] Currently allocated     6.44E-02 Mbytes, locked:    0 /   8

     iteration # 31     ecut=   100.00 Ry     beta= 0.30
     Davidson diagonalization with overlap

---- Real-time Memory Report at c_bands before calling an iterative solver
          1823 MiB given to the printing process from OS
             0 MiB allocation reported by mallinfo(arena+hblkhd)
        231427 MiB available memory on the node where the printing process lives
     GPU memory used/free/total (MiB): 2623 / 37714 / 40338
------------------
     ethr =  1.18E-07,  avg # of iterations =  1.2

     negative rho (up, down):  1.089E-04 0.000E+00


     -----------------------------------------------
     Non-local corr. energy    =       0.24185687 Ry
     -----------------------------------------------

 
     Adding external electric field

     Computed dipole along edir(3) : 
        Elec. dipole          0.6175 Ry au,          1.5696 Debye
        Ion. dipole           0.6176 Ry au,          1.5697 Debye
        Dipole                0.0008 Ry au,          0.0021 Debye
        Dipole field          0.0000 Ry au, 
 
        Potential amp.       -0.0006 Ry
        Total length         34.0151 bohr
 

     total cpu time spent up to now is       46.1 secs

     total energy              =    -178.21235847 Ry
     estimated scf accuracy    <       0.00002739 Ry
[tb_dev] Currently allocated     2.73E+00 Mbytes, locked:    0 /   9
[tb_pin] Currently allocated     6.44E-02 Mbytes, locked:    0 /   8

     iteration # 32     ecut=   100.00 Ry     beta= 0.30
     Davidson diagonalization with overlap

---- Real-time Memory Report at c_bands before calling an iterative solver
          1823 MiB given to the printing process from OS
             0 MiB allocation reported by mallinfo(arena+hblkhd)
        231428 MiB available memory on the node where the printing process lives
     GPU memory used/free/total (MiB): 2623 / 37714 / 40338
------------------
     ethr =  1.05E-07,  avg # of iterations =  2.0

     negative rho (up, down):  1.564E-04 0.000E+00


     -----------------------------------------------
     Non-local corr. energy    =       0.24189219 Ry
     -----------------------------------------------

 
     Adding external electric field

     Computed dipole along edir(3) : 
        Elec. dipole          0.6175 Ry au,          1.5696 Debye
        Ion. dipole           0.6176 Ry au,          1.5697 Debye
        Dipole                0.0034 Ry au,          0.0086 Debye
        Dipole field          0.0000 Ry au, 
 
        Potential amp.       -0.0025 Ry
        Total length         34.0151 bohr
 

     total cpu time spent up to now is       47.5 secs

     total energy              =    -178.21236089 Ry
     estimated scf accuracy    <       0.00002006 Ry
[tb_dev] Currently allocated     2.73E+00 Mbytes, locked:    0 /   9
[tb_pin] Currently allocated     6.44E-02 Mbytes, locked:    0 /   8

     iteration # 33     ecut=   100.00 Ry     beta= 0.30
     Davidson diagonalization with overlap

---- Real-time Memory Report at c_bands before calling an iterative solver
          1823 MiB given to the printing process from OS
             0 MiB allocation reported by mallinfo(arena+hblkhd)
        231431 MiB available memory on the node where the printing process lives
     GPU memory used/free/total (MiB): 2623 / 37714 / 40338
------------------
     ethr =  7.71E-08,  avg # of iterations =  1.7

     negative rho (up, down):  1.209E-04 0.000E+00


     -----------------------------------------------
     Non-local corr. energy    =       0.24191749 Ry
     -----------------------------------------------

 
     Adding external electric field

     Computed dipole along edir(3) : 
        Elec. dipole          0.6175 Ry au,          1.5695 Debye
        Ion. dipole           0.6176 Ry au,          1.5697 Debye
        Dipole                0.0040 Ry au,          0.0102 Debye
        Dipole field          0.0000 Ry au, 
 
        Potential amp.       -0.0030 Ry
        Total length         34.0151 bohr
 

     total cpu time spent up to now is       49.0 secs

     total energy              =    -178.21236162 Ry
     estimated scf accuracy    <       0.00001435 Ry
[tb_dev] Currently allocated     2.73E+00 Mbytes, locked:    0 /   9
[tb_pin] Currently allocated     6.44E-02 Mbytes, locked:    0 /   8

     iteration # 34     ecut=   100.00 Ry     beta= 0.30
     Davidson diagonalization with overlap

---- Real-time Memory Report at c_bands before calling an iterative solver
          1823 MiB given to the printing process from OS
             0 MiB allocation reported by mallinfo(arena+hblkhd)
        231434 MiB available memory on the node where the printing process lives
     GPU memory used/free/total (MiB): 2623 / 37714 / 40338
------------------
     ethr =  5.52E-08,  avg # of iterations =  1.4

     negative rho (up, down):  1.188E-04 0.000E+00


     -----------------------------------------------
     Non-local corr. energy    =       0.24190258 Ry
     -----------------------------------------------

 
     Adding external electric field

     Computed dipole along edir(3) : 
        Elec. dipole          0.6176 Ry au,          1.5697 Debye
        Ion. dipole           0.6176 Ry au,          1.5697 Debye
        Dipole               -0.0031 Ry au,         -0.0078 Debye
        Dipole field         -0.0000 Ry au, 
 
        Potential amp.        0.0023 Ry
        Total length         34.0151 bohr
 

     total cpu time spent up to now is       50.3 secs

     total energy              =    -178.21236284 Ry
     estimated scf accuracy    <       0.00000908 Ry
[tb_dev] Currently allocated     2.73E+00 Mbytes, locked:    0 /   9
[tb_pin] Currently allocated     6.44E-02 Mbytes, locked:    0 /   8

     iteration # 35     ecut=   100.00 Ry     beta= 0.30
     Davidson diagonalization with overlap

---- Real-time Memory Report at c_bands before calling an iterative solver
          1823 MiB given to the printing process from OS
             0 MiB allocation reported by mallinfo(arena+hblkhd)
        231435 MiB available memory on the node where the printing process lives
     GPU memory used/free/total (MiB): 2623 / 37714 / 40338
------------------
     ethr =  3.49E-08,  avg # of iterations =  2.1

     negative rho (up, down):  1.518E-04 0.000E+00


     -----------------------------------------------
     Non-local corr. energy    =       0.24192288 Ry
     -----------------------------------------------

 
     Adding external electric field

     Computed dipole along edir(3) : 
        Elec. dipole          0.6176 Ry au,          1.5697 Debye
        Ion. dipole           0.6176 Ry au,          1.5697 Debye
        Dipole               -0.0022 Ry au,         -0.0056 Debye
        Dipole field         -0.0000 Ry au, 
 
        Potential amp.        0.0016 Ry
        Total length         34.0151 bohr
 

     total cpu time spent up to now is       52.2 secs

     total energy              =    -178.21236577 Ry
     estimated scf accuracy    <       0.00000246 Ry
[tb_dev] Currently allocated     2.73E+00 Mbytes, locked:    0 /   9
[tb_pin] Currently allocated     6.44E-02 Mbytes, locked:    0 /   8

     iteration # 36     ecut=   100.00 Ry     beta= 0.30
     Davidson diagonalization with overlap

---- Real-time Memory Report at c_bands before calling an iterative solver
          1823 MiB given to the printing process from OS
             0 MiB allocation reported by mallinfo(arena+hblkhd)
        231460 MiB available memory on the node where the printing process lives
     GPU memory used/free/total (MiB): 2623 / 37714 / 40338
------------------
     ethr =  9.46E-09,  avg # of iterations =  2.3

     negative rho (up, down):  1.234E-04 0.000E+00


     -----------------------------------------------
     Non-local corr. energy    =       0.24191631 Ry
     -----------------------------------------------

 
     Adding external electric field

     Computed dipole along edir(3) : 
        Elec. dipole          0.6176 Ry au,          1.5697 Debye
        Ion. dipole           0.6176 Ry au,          1.5697 Debye
        Dipole               -0.0024 Ry au,         -0.0061 Debye
        Dipole field         -0.0000 Ry au, 
 
        Potential amp.        0.0018 Ry
        Total length         34.0151 bohr
 

     total cpu time spent up to now is       54.1 secs

     total energy              =    -178.21236383 Ry
     estimated scf accuracy    <       0.00000013 Ry
[tb_dev] Currently allocated     2.73E+00 Mbytes, locked:    0 /   9
[tb_pin] Currently allocated     6.44E-02 Mbytes, locked:    0 /   8

     iteration # 37     ecut=   100.00 Ry     beta= 0.30
     Davidson diagonalization with overlap

---- Real-time Memory Report at c_bands before calling an iterative solver
          1823 MiB given to the printing process from OS
             0 MiB allocation reported by mallinfo(arena+hblkhd)
        231467 MiB available memory on the node where the printing process lives
     GPU memory used/free/total (MiB): 2623 / 37714 / 40338
------------------
     ethr =  4.94E-10,  avg # of iterations =  2.6

     negative rho (up, down):  3.349E-05 0.000E+00


     -----------------------------------------------
     Non-local corr. energy    =       0.24191984 Ry
     -----------------------------------------------

 
     Adding external electric field

     Computed dipole along edir(3) : 
        Elec. dipole          0.6176 Ry au,          1.5697 Debye
        Ion. dipole           0.6176 Ry au,          1.5697 Debye
        Dipole               -0.0023 Ry au,         -0.0057 Debye
        Dipole field         -0.0000 Ry au, 
 
        Potential amp.        0.0017 Ry
        Total length         34.0151 bohr
 

     total cpu time spent up to now is       56.4 secs

     total energy              =    -178.21236226 Ry
     estimated scf accuracy    <       0.00000006 Ry
[tb_dev] Currently allocated     2.73E+00 Mbytes, locked:    0 /   9
[tb_pin] Currently allocated     6.44E-02 Mbytes, locked:    0 /   8

     iteration # 38     ecut=   100.00 Ry     beta= 0.30
     Davidson diagonalization with overlap

---- Real-time Memory Report at c_bands before calling an iterative solver
          1823 MiB given to the printing process from OS
             0 MiB allocation reported by mallinfo(arena+hblkhd)
        231474 MiB available memory on the node where the printing process lives
     GPU memory used/free/total (MiB): 2623 / 37714 / 40338
------------------
     ethr =  2.33E-10,  avg # of iterations =  2.6

     negative rho (up, down):  2.183E-05 0.000E+00


     -----------------------------------------------
     Non-local corr. energy    =       0.24192501 Ry
     -----------------------------------------------

 
     Adding external electric field

     Computed dipole along edir(3) : 
        Elec. dipole          0.6176 Ry au,          1.5697 Debye
        Ion. dipole           0.6176 Ry au,          1.5697 Debye
        Dipole               -0.0020 Ry au,         -0.0052 Debye
        Dipole field         -0.0000 Ry au, 
 
        Potential amp.        0.0015 Ry
        Total length         34.0151 bohr
 

     total cpu time spent up to now is       57.7 secs

     total energy              =    -178.21236243 Ry
     estimated scf accuracy    <       0.00000004 Ry
[tb_dev] Currently allocated     2.73E+00 Mbytes, locked:    0 /   9
[tb_pin] Currently allocated     6.44E-02 Mbytes, locked:    0 /   8

     iteration # 39     ecut=   100.00 Ry     beta= 0.30
     Davidson diagonalization with overlap

---- Real-time Memory Report at c_bands before calling an iterative solver
          1823 MiB given to the printing process from OS
             0 MiB allocation reported by mallinfo(arena+hblkhd)
        231478 MiB available memory on the node where the printing process lives
     GPU memory used/free/total (MiB): 2623 / 37714 / 40338
------------------
     ethr =  1.59E-10,  avg # of iterations =  2.3


     -----------------------------------------------
     Non-local corr. energy    =       0.24192533 Ry
     -----------------------------------------------

 
     Adding external electric field

     Computed dipole along edir(3) : 
        Elec. dipole          0.6176 Ry au,          1.5697 Debye
        Ion. dipole           0.6176 Ry au,          1.5697 Debye
        Dipole               -0.0019 Ry au,         -0.0048 Debye
        Dipole field         -0.0000 Ry au, 
 
        Potential amp.        0.0014 Ry
        Total length         34.0151 bohr
 

     total cpu time spent up to now is       58.3 secs

     End of self-consistent calculation

          k = 0.0000 0.0000 0.0000 ( 19585 PWs)   bands (ev):

   -61.6896 -35.8923 -35.6376 -35.6376 -15.1153 -13.8217  -6.6442  -3.4870
    -3.4870  -2.8465  -2.3366  -2.3366  -1.0855   1.9291   1.9291   2.1567
     2.1567

     occupation numbers 
     1.0000   1.0000   1.0000   1.0000   1.0000   1.0000   1.0000   1.0000
     1.0000   1.0000   1.0000   1.0000   1.0000   0.0000   0.0000   0.0000
     0.0000

          k = 0.0000 0.0962 0.0000 ( 19605 PWs)   bands (ev):

   -61.6867 -35.8867 -35.6665 -35.6441 -15.0078 -13.7764  -6.5197  -3.7284
    -3.3745  -3.2605  -2.5071  -2.0900  -1.1217   1.7573   1.8686   2.0045
     2.1433

     occupation numbers 
     1.0000   1.0000   1.0000   1.0000   1.0000   1.0000   1.0000   1.0000
     1.0000   1.0000   1.0000   1.0000   1.0000   0.0000   0.0000   0.0000
     0.0000

          k = 0.0000 0.1925 0.0000 ( 19637 PWs)   bands (ev):

   -61.6786 -35.8711 -35.7450 -35.6620 -14.7016 -13.6475  -6.2059  -4.2803
    -3.8996  -3.0758  -2.8928  -2.0381  -1.3195   1.3290   1.7285   1.7462
     2.5367

     occupation numbers 
     1.0000   1.0000   1.0000   1.0000   1.0000   1.0000   1.0000   1.0000
     1.0000   1.0000   1.0000   1.0000   1.0000   0.0000   0.0000   0.0000
     0.0000

          k = 0.0000 0.2887 0.0000 ( 19578 PWs)   bands (ev):

   -61.6676 -35.8513 -35.8491 -35.6863 -14.2471 -13.4574  -5.9781  -4.7530
    -4.5667  -3.3676  -2.6108  -2.3145  -1.7307   1.1826   1.4812   2.0363
     2.9510

     occupation numbers 
     1.0000   1.0000   1.0000   1.0000   1.0000   1.0000   1.0000   1.0000
     1.0000   1.0000   1.0000   1.0000   1.0000   0.0000   0.0000   0.0000
     0.0000

          k = 0.0000 0.3849 0.0000 ( 19534 PWs)   bands (ev):

   -61.6566 -35.9546 -35.8284 -35.7105 -13.7342 -13.2471  -6.2380  -5.2019
    -4.8469  -3.7430  -2.6343  -2.1798  -1.9710   1.3569   1.3850   2.5146
     3.2442

     occupation numbers 
     1.0000   1.0000   1.0000   1.0000   1.0000   1.0000   1.0000   1.0000
     1.0000   1.0000   1.0000   1.0000   1.0000   0.0000   0.0000   0.0000
[...]
     2.9136

     occupation numbers 
     1.0000   1.0000   1.0000   1.0000   1.0000   1.0000   1.0000   1.0000
     1.0000   1.0000   1.0000   1.0000   1.0000   0.0000   0.0000   0.0000
     0.0000

          k = 0.2500 0.0481 0.0000 ( 19579 PWs)   bands (ev):

   -61.6717 -35.8576 -35.8070 -35.6827 -14.4194 -13.5285  -5.9916  -4.6123
    -4.2297  -3.4981  -2.8377  -1.9591  -1.5505   1.1195   1.5762   1.7089
     2.9136

     occupation numbers 
     1.0000   1.0000   1.0000   1.0000   1.0000   1.0000   1.0000   1.0000
     1.0000   1.0000   1.0000   1.0000   1.0000   0.0000   0.0000   0.0000
     0.0000

          k = 0.3333 0.1925 0.0000 ( 19534 PWs)   bands (ev):

   -61.6566 -35.9546 -35.8284 -35.7105 -13.7342 -13.2471  -6.2380  -5.2019
    -4.8469  -3.7430  -2.6343  -2.1798  -1.9710   1.3569   1.3850   2.5146
     3.2442

     occupation numbers 
     1.0000   1.0000   1.0000   1.0000   1.0000   1.0000   1.0000   1.0000
     1.0000   1.0000   1.0000   1.0000   1.0000   0.0000   0.0000   0.0000
     0.0000

          k = 0.3333 0.2887 0.0000 ( 19508 PWs)   bands (ev):

   -61.6511 -35.9928 -35.8177 -35.7363 -13.4516 -13.1281  -6.3859  -5.5032
    -4.8391  -4.0545  -2.6249  -2.5239  -1.6676   1.2695   1.6794   2.5711
     3.3827

     occupation numbers 
     1.0000   1.0000   1.0000   1.0000   1.0000   1.0000   1.0000   1.0000
     1.0000   1.0000   1.0000   1.0000   1.0000   0.0000   0.0000   0.0000
     0.0000

          k = 0.3333 0.3849 0.0000 ( 19499 PWs)   bands (ev):

   -61.6456 -36.0046 -35.8069 -35.7894 -13.1562 -12.9897  -6.3316  -5.9066
    -4.7799  -4.1905  -3.2862  -2.7020  -1.4220   1.3338   1.9737   2.4278
     3.5712

     occupation numbers 
     1.0000   1.0000   1.0000   1.0000   1.0000   1.0000   1.0000   1.0000
     1.0000   1.0000   1.0000   1.0000   1.0000   0.0000   0.0000   0.0000
     0.0000

          k = 0.3333 0.4811 0.0000 ( 19546 PWs)   bands (ev):

   -61.6415 -35.9848 -35.8570 -35.7991 -12.9402 -12.8655  -6.2905  -6.0052
    -4.7800  -4.1514  -4.0326  -2.9655  -1.1421   1.0997   2.1791   2.4291
     3.9107

     occupation numbers 
     1.0000   1.0000   1.0000   1.0000   1.0000   1.0000   1.0000   1.0000
     1.0000   1.0000   1.0000   1.0000   1.0000   0.0000   0.0000   0.0000
     0.0000

          k = 0.3333 0.5774 0.0000 ( 19602 PWs)   bands (ev):

   -61.6401 -35.9526 -35.9069 -35.7962 -12.8696 -12.8065  -6.4404  -5.6086
    -5.0683  -4.4685  -3.8733  -3.1614  -0.9547   0.8766   2.0679   2.6672
     4.0854

     occupation numbers 
     1.0000   1.0000   1.0000   1.0000   1.0000   1.0000   1.0000   1.0000
     1.0000   1.0000   1.0000   1.0000   1.0000   0.0000   0.0000   0.0000
     0.0000

          k = 0.3333 0.6736 0.0000 ( 19546 PWs)   bands (ev):

   -61.6415 -35.9848 -35.8570 -35.7991 -12.9402 -12.8655  -6.2905  -6.0052
    -4.7800  -4.1514  -4.0326  -2.9655  -1.1421   1.0997   2.1791   2.4291
     3.9107

     occupation numbers 
     1.0000   1.0000   1.0000   1.0000   1.0000   1.0000   1.0000   1.0000
     1.0000   1.0000   1.0000   1.0000   1.0000   0.0000   0.0000   0.0000
     0.0000

          k = 0.3333-0.3849 0.0000 ( 19499 PWs)   bands (ev):

   -61.6456 -36.0046 -35.8069 -35.7894 -13.1562 -12.9897  -6.3316  -5.9066
    -4.7799  -4.1905  -3.2862  -2.7020  -1.4220   1.3338   1.9737   2.4278
     3.5712

     occupation numbers 
     1.0000   1.0000   1.0000   1.0000   1.0000   1.0000   1.0000   1.0000
     1.0000   1.0000   1.0000   1.0000   1.0000   0.0000   0.0000   0.0000
     0.0000

          k = 0.3333-0.2887 0.0000 ( 19508 PWs)   bands (ev):

   -61.6511 -35.9928 -35.8177 -35.7364 -13.4516 -13.1281  -6.3859  -5.5032
    -4.8391  -4.0545  -2.6249  -2.5239  -1.6676   1.2695   1.6794   2.5711
     3.3827

     occupation numbers 
     1.0000   1.0000   1.0000   1.0000   1.0000   1.0000   1.0000   1.0000
     1.0000   1.0000   1.0000   1.0000   1.0000   0.0000   0.0000   0.0000
     0.0000

          k = 0.3333-0.1925 0.0000 ( 19534 PWs)   bands (ev):

   -61.6566 -35.9546 -35.8284 -35.7105 -13.7342 -13.2471  -6.2380  -5.2019
    -4.8469  -3.7430  -2.6343  -2.1798  -1.9710   1.3569   1.3850   2.5146
     3.2442

     occupation numbers 
     1.0000   1.0000   1.0000   1.0000   1.0000   1.0000   1.0000   1.0000
     1.0000   1.0000   1.0000   1.0000   1.0000   0.0000   0.0000   0.0000
     0.0000

          k = 0.3333-0.0962 0.0000 ( 19539 PWs)   bands (ev):

   -61.6607 -35.9073 -35.8362 -35.7115 -13.9318 -13.3250  -6.0167  -4.8991
    -4.7895  -3.8845  -2.6164  -2.2734  -1.8115   1.0751   1.5398   2.0959
     3.2585

     occupation numbers 
     1.0000   1.0000   1.0000   1.0000   1.0000   1.0000   1.0000   1.0000
     1.0000   1.0000   1.0000   1.0000   1.0000   0.0000   0.0000   0.0000
     0.0000

          k = 0.3333 0.0000 0.0000 ( 19547 PWs)   bands (ev):

   -61.6621 -35.8830 -35.8391 -35.7189 -14.0022 -13.3518  -5.9050  -4.7632
    -4.6357  -4.1623  -2.8482  -1.9981  -1.7431   0.9464   1.5978   1.8018
     3.3185

     occupation numbers 
     1.0000   1.0000   1.0000   1.0000   1.0000   1.0000   1.0000   1.0000
     1.0000   1.0000   1.0000   1.0000   1.0000   0.0000   0.0000   0.0000
     0.0000

          k = 0.3333 0.0962 0.0000 ( 19539 PWs)   bands (ev):

   -61.6607 -35.9073 -35.8362 -35.7115 -13.9318 -13.3250  -6.0167  -4.8991
    -4.7895  -3.8845  -2.6164  -2.2734  -1.8115   1.0751   1.5398   2.0959
     3.2585

     occupation numbers 
     1.0000   1.0000   1.0000   1.0000   1.0000   1.0000   1.0000   1.0000
     1.0000   1.0000   1.0000   1.0000   1.0000   0.0000   0.0000   0.0000
     0.0000

          k = 0.4167 0.2406 0.0000 ( 19506 PWs)   bands (ev):

   -61.6485 -36.0297 -35.8127 -35.7282 -13.3052 -13.0756  -6.6410  -5.6648
    -4.9625  -3.9873  -2.8344  -1.8884  -1.7790   1.3895   1.7218   2.8622
     3.3993

     occupation numbers 
     1.0000   1.0000   1.0000   1.0000   1.0000   1.0000   1.0000   1.0000
     1.0000   1.0000   1.0000   1.0000   1.0000   0.0000   0.0000   0.0000
     0.0000

          k = 0.4167 0.3368 0.0000 ( 19485 PWs)   bands (ev):

   -61.6456 -36.0417 -35.8069 -35.7506 -13.1418 -13.0006  -6.6703  -5.8621
    -4.9810  -4.1041  -2.8454  -2.3855  -1.4240   1.4262   1.9207   2.9648
     3.2673

     occupation numbers 
     1.0000   1.0000   1.0000   1.0000   1.0000   1.0000   1.0000   1.0000
     1.0000   1.0000   1.0000   1.0000   1.0000   0.0000   0.0000   0.0000
     0.0000

          k = 0.4167 0.4330 0.0000 ( 19468 PWs)   bands (ev):

   -61.6430 -36.0228 -35.8020 -35.8007 -13.0102 -12.9199  -6.4150  -6.1080
    -4.9134  -4.1088  -3.2747  -2.8931  -1.2440   1.3156   2.2018   2.5623
     3.5451

     occupation numbers 
     1.0000   1.0000   1.0000   1.0000   1.0000   1.0000   1.0000   1.0000
     1.0000   1.0000   1.0000   1.0000   1.0000   0.0000   0.0000   0.0000
     0.0000

          k = 0.4167 0.5292 0.0000 ( 19546 PWs)   bands (ev):

   -61.6415 -35.9848 -35.8570 -35.7991 -12.9402 -12.8655  -6.2905  -6.0052
    -4.7800  -4.1514  -4.0326  -2.9655  -1.1421   1.0997   2.1791   2.4291
     3.9107

     occupation numbers 
     1.0000   1.0000   1.0000   1.0000   1.0000   1.0000   1.0000   1.0000
     1.0000   1.0000   1.0000   1.0000   1.0000   0.0000   0.0000   0.0000
     0.0000

          k = 0.4167 0.6255 0.0000 ( 19546 PWs)   bands (ev):

   -61.6415 -35.9848 -35.8570 -35.7991 -12.9402 -12.8655  -6.2905  -6.0052
    -4.7800  -4.1514  -4.0326  -2.9655  -1.1421   1.0997   2.1791   2.4291
     3.9107

     occupation numbers 
     1.0000   1.0000   1.0000   1.0000   1.0000   1.0000   1.0000   1.0000
     1.0000   1.0000   1.0000   1.0000   1.0000   0.0000   0.0000   0.0000
     0.0000

          k = 0.4167 0.7217 0.0000 ( 19468 PWs)   bands (ev):

   -61.6430 -36.0228 -35.8020 -35.8007 -13.0102 -12.9199  -6.4150  -6.1080
    -4.9134  -4.1088  -3.2747  -2.8931  -1.2440   1.3156   2.2018   2.5623
     3.5451

     occupation numbers 
     1.0000   1.0000   1.0000   1.0000   1.0000   1.0000   1.0000   1.0000
     1.0000   1.0000   1.0000   1.0000   1.0000   0.0000   0.0000   0.0000
     0.0000

          k = 0.4167-0.3368 0.0000 ( 19485 PWs)   bands (ev):

   -61.6456 -36.0417 -35.8069 -35.7506 -13.1418 -13.0006  -6.6703  -5.8621
    -4.9810  -4.1041  -2.8454  -2.3855  -1.4240   1.4262   1.9207   2.9648
     3.2673

     occupation numbers 
     1.0000   1.0000   1.0000   1.0000   1.0000   1.0000   1.0000   1.0000
     1.0000   1.0000   1.0000   1.0000   1.0000   0.0000   0.0000   0.0000
     0.0000

          k = 0.4167-0.2406 0.0000 ( 19506 PWs)   bands (ev):

   -61.6485 -36.0297 -35.8127 -35.7282 -13.3052 -13.0756  -6.6410  -5.6648
    -4.9625  -3.9873  -2.8344  -1.8884  -1.7790   1.3895   1.7218   2.8622
     3.3993

     occupation numbers 
     1.0000   1.0000   1.0000   1.0000   1.0000   1.0000   1.0000   1.0000
     1.0000   1.0000   1.0000   1.0000   1.0000   0.0000   0.0000   0.0000
     0.0000

          k = 0.4167-0.1443 0.0000 ( 19508 PWs)   bands (ev):

   -61.6511 -35.9928 -35.8177 -35.7364 -13.4516 -13.1281  -6.3859  -5.5032
    -4.8391  -4.0545  -2.6249  -2.5239  -1.6676   1.2695   1.6794   2.5711
     3.3827

     occupation numbers 
     1.0000   1.0000   1.0000   1.0000   1.0000   1.0000   1.0000   1.0000
     1.0000   1.0000   1.0000   1.0000   1.0000   0.0000   0.0000   0.0000
     0.0000

          k = 0.4167-0.0481 0.0000 ( 19520 PWs)   bands (ev):

   -61.6526 -35.9543 -35.8205 -35.7588 -13.5369 -13.1540  -6.1109  -5.3541
    -4.6557  -4.2831  -3.1683  -2.3111  -1.6723   1.1069   1.7430   2.1106
     3.5373

     occupation numbers 
     1.0000   1.0000   1.0000   1.0000   1.0000   1.0000   1.0000   1.0000
     1.0000   1.0000   1.0000   1.0000   1.0000   0.0000   0.0000   0.0000
     0.0000

          k = 0.4167 0.0481 0.0000 ( 19520 PWs)   bands (ev):

   -61.6526 -35.9543 -35.8205 -35.7588 -13.5369 -13.1540  -6.1109  -5.3541
    -4.6557  -4.2831  -3.1683  -2.3111  -1.6723   1.1069   1.7430   2.1106
     3.5373

     occupation numbers 
     1.0000   1.0000   1.0000   1.0000   1.0000   1.0000   1.0000   1.0000
     1.0000   1.0000   1.0000   1.0000   1.0000   0.0000   0.0000   0.0000
     0.0000

          k = 0.4167 0.1443 0.0000 ( 19508 PWs)   bands (ev):

   -61.6511 -35.9928 -35.8177 -35.7364 -13.4516 -13.1281  -6.3859  -5.5032
    -4.8391  -4.0545  -2.6249  -2.5239  -1.6676   1.2695   1.6794   2.5711
     3.3827

     occupation numbers 
     1.0000   1.0000   1.0000   1.0000   1.0000   1.0000   1.0000   1.0000
     1.0000   1.0000   1.0000   1.0000   1.0000   0.0000   0.0000   0.0000
     0.0000

          k =-0.5000-0.2887 0.0000 ( 19474 PWs)   bands (ev):

   -61.6456 -36.0570 -35.8069 -35.7346 -13.1346 -13.0058  -6.8147  -5.8373
    -5.0471  -4.0716  -2.8984  -1.7920  -1.6024   1.4372   1.9171   2.9700
     3.4455

     occupation numbers 
     1.0000   1.0000   1.0000   1.0000   1.0000   1.0000   1.0000   1.0000
     1.0000   1.0000   1.0000   1.0000   1.0000   0.0000   0.0000   0.0000
     0.0000

          k =-0.5000-0.1925 0.0000 ( 19485 PWs)   bands (ev):

   -61.6456 -36.0417 -35.8069 -35.7506 -13.1418 -13.0006  -6.6703  -5.8621
    -4.9810  -4.1041  -2.8454  -2.3855  -1.4240   1.4262   1.9207   2.9648
     3.2673

     occupation numbers 
     1.0000   1.0000   1.0000   1.0000   1.0000   1.0000   1.0000   1.0000
     1.0000   1.0000   1.0000   1.0000   1.0000   0.0000   0.0000   0.0000
     0.0000

          k =-0.5000-0.0962 0.0000 ( 19499 PWs)   bands (ev):

   -61.6456 -36.0046 -35.8069 -35.7894 -13.1562 -12.9897  -6.3316  -5.9066
    -4.7799  -4.1905  -3.2862  -2.7020  -1.4220   1.3338   1.9737   2.4278
     3.5712

     occupation numbers 
     1.0000   1.0000   1.0000   1.0000   1.0000   1.0000   1.0000   1.0000
     1.0000   1.0000   1.0000   1.0000   1.0000   0.0000   0.0000   0.0000
     0.0000

          k =-0.5000 0.0000 0.0000 ( 19495 PWs)   bands (ev):

   -61.6456 -35.9798 -35.8150 -35.8070 -13.1634 -12.9841  -6.1275  -5.9253
    -4.5296  -4.2395  -3.8747  -2.6143  -1.4514   1.2741   2.0051   2.1685
     3.7510

     occupation numbers 
     1.0000   1.0000   1.0000   1.0000   1.0000   1.0000   1.0000   1.0000
     1.0000   1.0000   1.0000   1.0000   1.0000   0.0000   0.0000   0.0000
     0.0000

          k =-0.5000 0.0962 0.0000 ( 19499 PWs)   bands (ev):

   -61.6456 -36.0046 -35.8069 -35.7894 -13.1562 -12.9897  -6.3316  -5.9066
    -4.7799  -4.1905  -3.2862  -2.7020  -1.4220   1.3338   1.9737   2.4278
     3.5712

     occupation numbers 
     1.0000   1.0000   1.0000   1.0000   1.0000   1.0000   1.0000   1.0000
     1.0000   1.0000   1.0000   1.0000   1.0000   0.0000   0.0000   0.0000
     0.0000

          k =-0.5000 0.1925 0.0000 ( 19485 PWs)   bands (ev):

   -61.6456 -36.0417 -35.8069 -35.7506 -13.1418 -13.0006  -6.6703  -5.8621
    -4.9810  -4.1041  -2.8454  -2.3855  -1.4240   1.4262   1.9207   2.9648
     3.2673

     occupation numbers 
     1.0000   1.0000   1.0000   1.0000   1.0000   1.0000   1.0000   1.0000
     1.0000   1.0000   1.0000   1.0000   1.0000   0.0000   0.0000   0.0000
     0.0000

          k =-0.5000-0.8660 0.0000 ( 19474 PWs)   bands (ev):

   -61.6456 -36.0570 -35.8069 -35.7346 -13.1346 -13.0058  -6.8147  -5.8373
    -5.0471  -4.0716  -2.8984  -1.7920  -1.6024   1.4372   1.9171   2.9700
     3.4455

     occupation numbers 
     1.0000   1.0000   1.0000   1.0000   1.0000   1.0000   1.0000   1.0000
     1.0000   1.0000   1.0000   1.0000   1.0000   0.0000   0.0000   0.0000
     0.0000

     the Fermi energy is     0.0947 ev

!    total energy              =    -178.21236272 Ry
     estimated scf accuracy    <          6.5E-09 Ry
     smearing contrib. (-TS)   =      -0.00000000 Ry
     internal energy E=F+TS    =    -178.21236272 Ry

     The total energy is F=E-TS. E is the sum of the following terms:
     one-electron contribution =   -1139.83552173 Ry
     hartree contribution      =     569.60749978 Ry
     xc contribution           =     -24.66508014 Ry
     ewald contribution        =     416.68073934 Ry
     electric field correction =       0.00000004 Ry

     convergence has been achieved in  39 iterations

     Forces acting on atoms (cartesian axes, Ry/au):

     atom    1 type  1   force =     0.00000019    0.00000094   -0.01768480
     atom    2 type  2   force =    -0.00000008   -0.00000027    0.00506179
     atom    3 type  2   force =    -0.00000011   -0.00000067    0.01262301
     The non-local contrib.  to forces
     atom    1 type  1   force =     0.00000002    0.00000002    0.00251049
     atom    2 type  2   force =    -0.00000030    0.00000013   -0.31974709
     atom    3 type  2   force =    -0.00000007   -0.00000007    0.33748895
     The ionic contribution  to forces
     atom    1 type  1   force =     0.00000000    0.00000005    0.05068258
     atom    2 type  2   force =     0.00000000   -0.00000003   36.77890219
     atom    3 type  2   force =     0.00000000   -0.00000002  -36.82958477
     The local contribution  to forces
     atom    1 type  1   force =    -0.00000021   -0.00000031   -0.07158047
     atom    2 type  2   force =     0.00000019    0.00000004  -36.45447944
     atom    3 type  2   force =     0.00000015    0.00000021   36.50432395
     The core correction contribution to forces
     atom    1 type  1   force =     0.00000000    0.00000000    0.00000000
     atom    2 type  2   force =     0.00000000    0.00000000    0.00000000
     atom    3 type  2   force =     0.00000000    0.00000000    0.00000000
     The Hubbard contrib.    to forces
     atom    1 type  1   force =     0.00000000    0.00000000    0.00000000
     atom    2 type  2   force =     0.00000000    0.00000000    0.00000000
     atom    3 type  2   force =     0.00000000    0.00000000    0.00000000
     The SCF correction term to forces
     atom    1 type  1   force =     0.00000045    0.00000181    0.00010863
     atom    2 type  2   force =     0.00000010    0.00000021    0.00011856
     atom    3 type  2   force =    -0.00000012   -0.00000016    0.00012730

     Total force =     0.022310     Total SCF correction =     0.000205

     Writing all to output data dir ./tmp/bilayer.save/
 
     init_run     :      2.25s CPU      5.77s WALL (       1 calls)
     electrons    :     43.87s CPU     52.47s WALL (       1 calls)
     forces       :      0.02s CPU      0.03s WALL (       1 calls)

     Called by init_run:
     wfcinit      :      0.54s CPU      3.87s WALL (       1 calls)
                                        3.87s GPU  (       1 calls)
     wfcinit:wfcr :      0.50s CPU      3.78s WALL (      19 calls)
                                        3.78s GPU  (      19 calls)
     potinit      :      1.62s CPU      1.76s WALL (       1 calls)
     hinit0       :      0.04s CPU      0.05s WALL (       1 calls)

     Called by electrons:
     c_bands      :     10.99s CPU     16.50s WALL (      39 calls)
     sum_band     :      1.07s CPU      1.41s WALL (      39 calls)
     v_of_rho     :      8.37s CPU      9.97s WALL (      40 calls)
     v_h          :      0.06s CPU      0.11s WALL (      40 calls)
     v_xc         :      8.18s CPU      9.57s WALL (      40 calls)
     mix_rho      :     24.91s CPU     26.14s WALL (      39 calls)
     vdW_kernel   :      1.32s CPU      1.33s WALL (       1 calls)

     Called by c_bands:
     init_us_2    :      0.26s CPU      0.43s WALL (    1520 calls)
     init_us_2:gp :      0.25s CPU      0.41s WALL (    1520 calls)
     cegterg      :      9.84s CPU     13.05s WALL (     746 calls)

     Called by sum_band:
     sum_band:wei :      0.01s CPU      0.01s WALL (      39 calls)
                                        0.01s GPU  (      39 calls)
     sum_band:loo :      0.93s CPU      1.20s WALL (      39 calls)
                                        1.20s GPU  (      39 calls)
     sum_band:buf :      0.10s CPU      0.13s WALL (     741 calls)
                                        0.13s GPU  (     741 calls)
     sum_band:ini :      0.16s CPU      0.25s WALL (     741 calls)
                                        0.25s GPU  (     741 calls)

     Called by *egterg:
     cdiaghg      :      1.38s CPU      2.73s WALL (    3362 calls)
                                        2.69s GPU  (    3362 calls)
     cegterg:over :      1.02s CPU      1.15s WALL (    2621 calls)
     cegterg:upda :      0.10s CPU      0.12s WALL (    2621 calls)
     cegterg:last :      0.06s CPU      0.07s WALL (    1760 calls)
     h_psi        :      6.15s CPU     10.41s WALL (    3386 calls)
                                       10.39s GPU  (    3386 calls)
     g_psi        :      0.01s CPU      0.05s WALL (    2621 calls)
                                        0.03s GPU  (    2621 calls)

     Called by h_psi:
     h_psi:calbec :      0.85s CPU      3.05s WALL (    3386 calls)
                                        3.03s GPU  (    3386 calls)
     vloc_psi     :      5.00s CPU      7.03s WALL (    3386 calls)
                                        7.00s GPU  (    3386 calls)
     add_vuspsi   :      0.13s CPU      0.21s WALL (    3386 calls)
                                        0.19s GPU  (    3386 calls)

     General routines
     calbec       :      0.82s CPU      2.99s WALL (    3462 calls)
     fft          :      2.80s CPU      3.92s WALL (    2401 calls)
                                        0.18s GPU  (     282 calls)
     ffts         :     17.77s CPU     18.57s WALL (   14733 calls)
     fftw         :      5.06s CPU      7.35s WALL (   11514 calls)
                                        7.12s GPU  (   11514 calls)
     davcio       :      0.55s CPU      1.03s WALL (    2966 calls)
 
     Parallel routines
 
     PWSCF        :     46.24s CPU     58.62s WALL

 
   This run was terminated on:  15:27:59  19Dec2023            

=------------------------------------------------------------------------------=
   JOB DONE.
=------------------------------------------------------------------------------=
