36
Lattice="6.58012104664396 4.652953351524507 0.0 3.2790605061304188 -4.63718705508585 0.0 0.0 0.0 30.10888" Properties=species:S:1:pos:R:3:forces:R:3 spacegroup="P 1" unit_cell=conventional occupancy="_JSON {\"0\": {\"P\": 1.0}, \"1\": {\"P\": 1.0}, \"2\": {\"P\": 1.0}, \"3\": {\"P\": 1.0}}" thickness=2.108879999999999 dz=15.89112 energy=12.911129593849182 pbc="T T T"
P        1.64017984      -1.90736597      -3.10888000       0.07781221       0.70018335      -1.05436219
P        3.27971009      -4.22595950      -1.00000000      -0.46447632      -0.84477378      -0.76076903
P        4.92527452      -2.72456565      -1.00000000      -0.00710847       0.40598345      -3.19599437
P        3.28574426      -0.40597212      -3.10888000      -0.08380637      -0.52290035      -1.06287264
P        4.92657369      -1.90211054      -3.10888000      -0.00489911       0.57999782      -0.33237506
P        3.28704344       0.41648299      -1.00000000       0.91944907      -1.82385711      -1.02195584
P        4.93260786       1.91787684      -1.00000000      -0.87039541       1.39767796      -1.02567904
P        4.93390704       2.74033195      -3.10888000       0.00236396       0.32941365      -0.94150853
P        6.57213811      -0.40071669      -3.10888000      -0.05239368      -0.34849955      -1.01808766
P        6.57343729       0.42173842      -1.00000000      -0.09786098      -0.27679460      -2.48808625
P        8.21900171       1.92313227      -1.00000000       0.15655956       0.84980571      -1.62789317
P        6.57947146       4.24172580      -3.10888000       0.18073367      -0.53291219      -1.09241001
P        2.02745875      -2.45504868       3.10888000      -0.50469942       0.09742751      -0.29713964
P        7.50722628      -0.89880880       3.10888000       0.06089048       0.17478339      -2.30737464
P        4.76734251      -1.67692874       1.00000000      -0.74846616       1.39305125      -0.27303979
P        6.73136929      -0.62589849       1.00000000       0.41032210      -1.29164147       0.88000682
P        3.99148553      -1.40401844       3.10888000      -0.14491999       0.35032281      -1.40741566
P        3.12781226       0.64166479       3.10888000      -0.54579580       0.95733665      -0.78065646
P        0.38792849      -0.13645515       1.00000000      -0.34028965      -0.77165385      -0.13674660
P        2.35195527       0.91457509       1.00000000       0.43033051       0.13586843       2.22092503
P        9.47125306       0.15222145       3.10888000       0.44672996       0.23531079       0.06232527
P        5.86769603       1.41978473       1.00000000       0.62240770      -0.03423043       1.87419434
P        7.83172281       2.47081497       1.00000000      -0.36986785       0.36006308       0.36913703
P        5.09183904       1.69269503       3.10888000       1.09043570      -1.31878263      -0.20421419
P        1.64017984      -1.90736597       5.10888000      -0.25466784      -0.18993280       1.50724315
P        3.27971009      -4.22595950       7.21776000       0.13310763       0.31515871       0.82512238
P        4.92527452      -2.72456565       7.21776000      -0.21707332      -0.21065401       0.78472438
P        3.28574426      -0.40597212       5.10888000      -0.13100104      -0.12447001       2.95519677
P        4.92657369      -1.90211054       5.10888000       1.12525126      -1.35585588       1.29612657
P        3.28704344       0.41648299       7.21776000      -0.00015121       0.16935460       0.81976448
P        4.93260786       1.91787684       7.21776000       0.11063041      -0.36951865       0.14112412
P        4.93390704       2.74033195       5.10888000      -0.23455636      -0.64832739       3.24617614
P        6.57213811      -0.40071669       5.10888000      -1.05115139       1.46934481       0.76317993
P        6.57343729       0.42173842       7.21776000      -0.14473719       0.34333774       1.08269365
P        8.21900171       1.92313227       7.21776000      -0.11929708      -0.14700800       1.22685411
P        6.57947146       4.24172580       5.10888000       0.62059035       0.54739102       0.97378999
36
Lattice="6.58012104664396 4.652953351524507 0.0 3.2790605061304188 -4.63718705508585 0.0 0.0 0.0 30.10888" Properties=species:S:1:pos:R:3:forces:R:3 spacegroup="P 1" unit_cell=conventional occupancy="_JSON {\"0\": {\"P\": 1.0}, \"1\": {\"P\": 1.0}, \"2\": {\"P\": 1.0}, \"3\": {\"P\": 1.0}}" thickness=2.108879999999999 dz=15.89112 energy=11.92409336566925 pbc="T T T"
P        1.64095796      -1.90036414      -3.11942362       0.06505939       0.58123774      -1.04743163
P        3.27506533      -4.23440724      -1.00760769      -0.44427422      -0.67878440      -0.86050513
P        4.92520344      -2.72050582      -1.03195994       0.09962640       0.17856032      -2.84527959
P        3.28490620      -0.41120112      -3.11950873      -0.04096831      -0.41970465      -1.00899524
P        4.92652470      -1.89631056      -3.11220375       0.00322643       0.54585650      -0.44179909
P        3.29623793       0.39824442      -1.01021956       0.78593645      -1.55902730      -0.94285115
P        4.92390391       1.93185362      -1.01025679      -0.75222849       1.16169856      -0.93750575
P        4.93393068       2.74362609      -3.11829509      -0.03035742       0.26602717      -0.90940349
P        6.57161417      -0.40420169      -3.11906088      -0.03928503      -0.32897449      -1.06038596
P        6.57245868       0.41897047      -1.02488086      -0.16061342      -0.10831983      -2.29608335
P        8.22056731       1.93163033      -1.01627893       0.13048860       0.71478099      -1.51503577
P        6.58127880       4.23639668      -3.11980410       0.12700045      -0.43695810      -1.04587441
P        2.02241176      -2.45407440       3.10590860      -0.42506151       0.07491522      -0.28153171
P        7.50783518      -0.89706097       3.08580625       0.18852851      -0.01542169      -1.98499817
P        4.75985785      -1.66299823       0.99726960      -0.64376099       1.19976600      -0.37648777
P        6.73547251      -0.63881490       1.00880007       0.31002904      -1.08911493       0.68218471
P        3.99003633      -1.40051521       3.09480584      -0.20471957       0.41526765      -1.25330855
P        3.12235430       0.65123816       3.10107344      -0.38789860       0.84347053      -0.62024534
P        0.38452559      -0.14417169       0.99863253      -0.31921776      -0.61534876      -0.08801277
P        2.35625858       0.91593377       1.02220925       0.29504749       0.22629980       2.01407474
P        9.47572036       0.15457456       3.10950325       0.38448206       0.27441940      -0.11661799
P        5.87392011       1.41944243       1.01874194       0.59276655      -0.18293289       1.68375079
P        7.82802413       2.47441560       1.00369137      -0.28185426       0.29227766       0.35292087
P        5.10274340       1.67950720       3.10683786       0.91055360      -1.09331265      -0.02767254
P        1.63763316      -1.90926530       5.12395243      -0.22751357      -0.16888947       1.44938443
P        3.28104117      -4.22280791       7.22601122       0.09031295       0.23890361       0.79104406
P        4.92310379      -2.72667219       7.22560724      -0.13954058      -0.17586049       0.79648079
P        3.28443425      -0.40721682       5.13843197      -0.00564098      -0.23919913       2.70412682
P        4.93782620      -1.91566910       5.12184127       0.94716882      -1.18070488       1.14717039
P        3.28704193       0.41817654       7.22595764      -0.00985676       0.17135136       0.89715248
P        4.93371416       1.91418165       7.21917124       0.06894487      -0.37651570       0.23570799
P        4.93156148       2.73384868       5.14134176      -0.28231582      -0.43882921       2.96343641
P        6.56162660      -0.38602324       5.11651180      -0.92647201       1.30080698       0.71892527
P        6.57198992       0.42517180       7.22858694      -0.12495153       0.26143828       1.04725199
P        8.21780874       1.92166219       7.23002854      -0.09089248      -0.12726404       1.18533698
P        6.58567736       4.24719971       5.11861790       0.53825051       0.48808513       0.99107988
36
Lattice="6.58012104664396 4.652953351524507 0.0 3.2790605061304188 -4.63718705508585 0.0 0.0 0.0 30.10888" Properties=species:S:1:pos:R:3:forces:R:3 spacegroup="P 1" unit_cell=conventional occupancy="_JSON {\"0\": {\"P\": 1.0}, \"1\": {\"P\": 1.0}, \"2\": {\"P\": 1.0}, \"3\": {\"P\": 1.0}}" thickness=2.108879999999999 dz=15.89112 energy=10.399196952581406 pbc="T T T"
P        1.64238100      -1.88760568      -3.14054850       0.04417501       0.36815993      -1.06903397
P        3.26594973      -4.24955062      -1.02401371      -0.29879677      -0.36544085      -0.98070322
P        4.92624618      -2.71486839      -1.09233128       0.33297978      -0.40982936      -1.79851538
P        3.28369683      -0.42056960      -3.14028322       0.02358071      -0.20469074      -0.94616399
P        4.92651645      -1.88502682      -3.12010294       0.01110632       0.50417393      -0.81923245
P        3.31324371       0.36451092      -1.02989102       0.41879162      -0.97909084      -0.80275326
P        4.90771406       1.95733769      -1.02990238      -0.56265959       0.73672530      -0.82201053
P        4.93361472       2.74954603      -3.13687096      -0.07606223       0.15808276      -0.88771139
P        6.57070622      -0.41099266      -3.14000319      -0.00599888      -0.27120238      -1.17995229
P        6.56979372       0.41527603      -1.07278016      -0.24661718       0.22030961      -1.85392264
P        8.22342590       1.94721887      -1.04776006       0.03669581       0.42458417      -1.28016522
P        6.58431621       4.22674643      -3.14125411       0.03790508      -0.24601749      -0.95534878
P        2.01314758      -2.45236535       3.10010689      -0.23075866       0.08941248      -0.18678170
P        7.51047751      -0.89565923       3.04298911       0.56017658      -0.46765963      -0.92519897
P        4.74597030      -1.63713291       0.99062995      -0.45990932       0.65828744      -0.57993217
P        6.74260943      -0.66253834       1.02429832       0.09139919      -0.68611608       0.09224812
P        3.98645788      -1.39274922       3.06821646      -0.33260003       0.52683328      -0.87403044
P        3.11313309       0.66922406       3.08715740       0.00295299       0.60463913      -0.04498122
P        0.37791689      -0.15795230       0.99642411      -0.15856403      -0.19782662      -0.03631175
P        2.36340915       0.91967049       1.06457135      -0.18863493       0.48641347       0.98641521
P        9.48401203       0.15974080       3.10876870       0.20313931       0.23377504      -0.29145708
P        5.88610665       1.41710220       1.05431399       0.57416638      -0.46136631       1.17802078
P        7.82156428       2.48090300       1.01093410      -0.13171770       0.15025625       0.29914362
P        5.12267239       1.65549287       3.10469252       0.51247758      -0.54777494       0.37189859
P        1.63281377      -1.91285084       5.15361841      -0.16223757      -0.13055900       1.34611673
P        3.28324240      -4.21731757       7.24222480       0.03137432       0.13161907       0.79333003
P        4.91960001      -2.73052166       7.24151764       0.01591850      -0.10621132       0.82541402
P        3.28319258      -0.41099424       5.19506810       0.21640515      -0.49450030       2.13313329
P        4.95847529      -1.94098791       5.14624999       0.62678719      -0.87854221       0.88632043
P        3.28693107       0.42160422       7.24330173      -0.01229576       0.19344310       1.12002635
P        4.93547573       1.90667338       7.22305977       0.00207140      -0.46810948       0.72793780
P        4.92631430       2.72313890       5.20347730      -0.36779838       0.17189413       1.82300836
P        6.54187432      -0.35834885       5.13136675      -0.53419417       0.91880262       0.63628407
P        6.56929923       0.43116608       7.24996480      -0.10661454       0.12204674       1.00546092
P        8.21572537       1.91892538       7.25423779      -0.06768780      -0.08276363       1.13850818
P        6.59724195       4.25754823       5.13839163       0.20104450       0.29824290       0.97093851
36
Lattice="6.58012104664396 4.652953351524507 0.0 3.2790605061304188 -4.63718705508585 0.0 0.0 0.0 30.10888" Properties=species:S:1:pos:R:3:forces:R:3 spacegroup="P 1" unit_cell=conventional occupancy="_JSON {\"0\": {\"P\": 1.0}, \"1\": {\"P\": 1.0}, \"2\": {\"P\": 1.0}, \"3\": {\"P\": 1.0}}" thickness=2.108879999999999 dz=15.89112 energy=9.269444316625595 pbc="T T T"
P        1.64380454      -1.87511748      -3.16575152       0.01920359       0.15010792      -1.10065740
P        3.25667502      -4.26366858      -1.04506904      -0.17020503      -0.12245607      -1.08748168
P        4.93025032      -2.71498956      -1.15197970       0.46946386      -0.87459103      -0.89164507
P        3.28308910      -0.42909301      -3.16403260       0.07592267       0.02624938      -0.89396364
P        4.92662012      -1.87222318      -3.13365907       0.01023284       0.42200233      -1.19925189
P        3.32918077       0.33143609      -1.05146166       0.11795905      -0.41551477      -0.77202490
P        4.89092663       1.98229530      -1.05164473      -0.38193017       0.33984184      -0.73327032
P        4.93264605       2.75521505      -3.15851746      -0.09148261       0.05843493      -0.88338889
P        6.57001649      -0.41838092      -3.16617196       0.04249065      -0.17749858      -1.27865833
P        6.56551350       0.41487998      -1.12431147      -0.28691151       0.49493766      -1.41936421
P        8.22577289       1.96222860      -1.08223603      -0.05251898       0.10446846      -1.02328651
P        6.58679932       4.21762024      -3.16556316      -0.05633421      -0.05475497      -0.87807373
P        2.00443984      -2.45029754       3.09423731      -0.01931447       0.11361589      -0.00745574
P        7.51783058      -0.89929207       3.00413576       0.79912220      -0.75996989       0.01995054
P        4.73179410      -1.61268312       0.98030580      -0.30472800       0.16948842      -0.64194641
P        6.74846691      -0.68577453       1.03597181      -0.09631148      -0.32140455      -0.53472552
P        3.98069622      -1.38216575       3.04113866      -0.40292141       0.55768176      -0.49233264
P        3.10675726       0.68767249       3.07704848       0.36910301       0.35408923       0.61271685
P        0.37176473      -0.16947270       0.99453250       0.02113804       0.21566544       0.04940500
P        2.36651776       0.92705714       1.10371162      -0.69915025       0.68533212      -0.07073230
P        9.49177222       0.16563188       3.10538764       0.09891872       0.17015845      -0.36401304
P        5.90022679       1.41093225       1.09062532       0.55904456      -0.67755714       0.56139219
P        7.81577995       2.48688907       1.01891136       0.00085767       0.01802088       0.22968769
P        5.14156268       1.63341729       3.10686563       0.14122957      -0.10055020       0.67675322
P        1.62786825      -1.91662731       5.18748323      -0.09164025      -0.08681674       1.22346285
P        3.28508037      -4.21220762       7.26130083      -0.01768932       0.05046776       0.85653010
P        4.91732314      -2.73424163       7.26069910       0.15921562      -0.02638692       0.84436309
P        3.28446173      -0.41848883       5.25541810       0.37499827      -0.75008693       1.43533921
P        4.97899169      -1.96722763       5.17193419       0.34792888      -0.59268594       0.62366766
P        3.28673296       0.42589046       7.26638096      -0.01458198       0.20859158       1.40706718
P        4.93671968       1.89684736       7.23293090      -0.05893254      -0.52996782       1.30873847
P        4.91904687       2.71739323       5.26459237      -0.37362758       0.74729782       0.73886573
P        6.52289288      -0.33007642       5.14795219      -0.20166391       0.56129521       0.63345793
P        6.56638017       0.43653178       7.27471735      -0.07703596      -0.03033242       0.98238203
P        8.21361156       1.91620921       7.28226750      -0.06336819      -0.03197315       1.11481093
P        6.60725482       4.26767384       5.16168993      -0.14648092       0.10479939       0.95368112
36
Lattice="6.58012104664396 4.652953351524507 0.0 3.2790605061304188 -4.63718705508585 0.0 0.0 0.0 30.10888" Properties=species:S:1:pos:R:3:forces:R:3 spacegroup="P 1" unit_cell=conventional occupancy="_JSON {\"0\": {\"P\": 1.0}, \"1\": {\"P\": 1.0}, \"2\": {\"P\": 1.0}, \"3\": {\"P\": 1.0}}" thickness=2.108879999999999 dz=15.89112 energy=8.394626259803772 pbc="T T T"
P        1.64508133      -1.86408950      -3.19551768       0.00555920      -0.04960978      -1.10335712
P        3.24793193      -4.27569100      -1.07151780      -0.06435344       0.04548565      -1.12939918
P        4.93775289      -2.72331665      -1.20629797       0.54140794      -1.17153982      -0.23561716
P        3.28333597      -0.43540815      -3.19073367       0.10700057       0.25081259      -0.84074733
P        4.92679627      -1.85839260      -3.15538638       0.01428508       0.27637389      -1.41694091
P        3.34256140       0.30205960      -1.07533731      -0.10356650       0.06504858      -0.76990800
P        4.87440615       2.00470984      -1.07528773      -0.16331688      -0.04269850      -0.61751193
P        4.93103900       2.76012981      -3.18349995      -0.08952521      -0.03940628      -0.85670232
P        6.56988548      -0.42574027      -3.19835744       0.09311359      -0.06223746      -1.33249503
P        6.55951699       0.41923464      -1.17734848      -0.30871386       0.67049366      -0.93257779
P        8.22708543       1.97476825      -1.11841312      -0.12189861      -0.16712025      -0.82611030
P        6.58818073       4.21007840      -3.19254554      -0.14773968       0.11340484      -0.82481522
P        1.99755383      -2.44763589       3.08964807       0.14216402       0.14094340       0.17593279
P        7.53101510      -0.90924374       2.97441000       0.90321715      -0.92838388       0.72474536
P        4.71801086      -1.59226334       0.96631355      -0.16004378      -0.17424622      -0.61263636
P        6.75206992      -0.70669016       1.03992519      -0.25735453       0.00162005      -1.04388082
P        3.97246698      -1.36876717       3.01565615      -0.34860931       0.52780559      -0.06243283
P        3.10532336       0.70520969       3.07503392       0.59352398       0.08879960       1.06971717
P        0.36722712      -0.17631200       0.99354125       0.14288965       0.51319989       0.10913863
P        2.36232899       0.93919624       1.13318019      -1.01068299       0.80026938      -0.84128734
P        9.49867814       0.17176944       3.09935753       0.02840925       0.09183508      -0.31323793
P        5.91636113       1.39980310       1.12386698       0.47063326      -0.78322648      -0.12433422
P        7.81133461       2.49166746       1.02721552       0.08673461      -0.08853844       0.14769128
P        5.15743611       1.61547445       3.11490998      -0.11590472       0.20207517       0.87909549
P        1.62319790      -1.92035218       5.22507434      -0.03597534      -0.03238270       1.05762185
P        3.28632891      -4.20779829       7.28405143      -0.04952123      -0.01407126       0.93065956
P        4.91706909      -2.73735408       7.28341633       0.24968716       0.04892173       0.85115689
P        3.28896927      -0.43132065       5.31539512       0.46088022      -0.90191895       0.70031869
P        4.99806304      -1.99300967       5.19758021       0.08703351      -0.28708303       0.34327295
P        3.28644315       0.43115425       7.29739667      -0.03154148       0.18343581       1.63570243
P        4.93712260       1.88429284       7.25285184      -0.11799154      -0.44361290       1.66169176
P        4.90993410       2.72000498       5.31860149      -0.36705296       1.14846024      -0.02449441
P        6.50638031      -0.30302489       5.16668515       0.04618919       0.24353951       0.67790446
P        6.56340750       0.44037732       7.30302319      -0.02693671      -0.20689514       0.93278832
P        8.21138755       1.91381699       7.31434321      -0.06097991       0.02052885       1.09277888
P        6.61358479       4.27645629       5.18860592      -0.39102045      -0.04008213       0.91826823
36
Lattice="6.58012104664396 4.652953351524507 0.0 3.2790605061304188 -4.63718705508585 0.0 0.0 0.0 30.10888" Properties=species:S:1:pos:R:3:forces:R:3 spacegroup="P 1" unit_cell=conventional occupancy="_JSON {\"0\": {\"P\": 1.0}, \"1\": {\"P\": 1.0}, \"2\": {\"P\": 1.0}, \"3\": {\"P\": 1.0}}" thickness=2.108879999999999 dz=15.89112 energy=7.570293843746185 pbc="T T T"
P        1.64617318      -1.85552715      -3.22963227       0.00525820      -0.20873716      -1.06496890
P        3.24022152      -4.28510191      -1.10315558       0.02360293       0.16022706      -1.13950828
P        4.94869319      -2.74053417      -1.25274036       0.53132199      -1.26945411       0.02873588
P        3.28448913      -0.43833340      -3.22001032       0.10744341       0.43552430      -0.79619228
P        4.92706712      -1.84464302      -3.18572667       0.02479589       0.06151003      -1.40212419
P        3.35256464       0.27865432      -1.10167719      -0.24029446       0.41362858      -0.73424715
P        4.85946593       2.02262995      -1.10008235       0.01540190      -0.34216011      -0.55854029
P        4.92893077       2.76379191      -3.21151540      -0.07431163      -0.13254726      -0.80656183
P        6.57060662      -0.43230215      -3.23648505       0.13168901       0.06968087      -1.33347875
P        6.55187574       0.42875291      -1.22894321      -0.30936904       0.71934348      -0.51828629
P        8.22707291       1.98351969      -1.15529608      -0.16197129      -0.34324947      -0.72637463
P        6.58799463       4.20492960      -3.22191016      -0.22014290       0.24221289      -0.79923759
P        1.99319624      -2.44420937       3.08746593       0.24451683       0.16031741       0.32603794
P        7.54981203      -0.92562511       2.95658657       0.80342825      -0.94159020       1.03536136
P        4.70533449      -1.57714172       0.94944144      -0.04989970      -0.37202656      -0.51185933
P        6.75272274      -0.72375185       1.03386912      -0.30699617       0.23182479      -1.22649272
P        3.96264805      -1.35313417       2.99429628      -0.19048366       0.44449992       0.29219007
P        3.10943117       0.72031728       3.08290267       0.59937316      -0.09881881       1.14094415
P        0.36479327      -0.17733166       0.99370258       0.21386576       0.65358040       0.12066429
P        2.34992068       0.95622409       1.14975719      -1.05163007       0.79881449      -1.15715012
P        9.50456897       0.17759704       3.09164861      -0.03551990       0.02948593      -0.26377402
P        5.93371921       1.38375136       1.14990063       0.33802952      -0.77225302      -0.54655200
P        7.80847668       2.49478126       1.03530875       0.12433977      -0.13730444       0.05648741
P        5.16936481       1.60262257       3.12929583      -0.22218272       0.38009222       0.94860581
P        1.61906495      -1.92368127       5.26517068      -0.00369844       0.03102002       0.90719874
P        3.28690784      -4.20432353       7.31090243      -0.05726311      -0.06797099       0.98161098
P        4.91908225      -2.73946010       7.30953304       0.27802771       0.11030896       0.82661924
P        3.29674817      -0.44981809       5.37059027       0.47298187      -0.92134552       0.22462249
P        5.01440745      -2.01661200       5.22157121      -0.12924209      -0.00393248       0.12994096
P        3.28592602       0.43708314       7.33726582      -0.06404525       0.08368233       1.68175954
P        4.93640220       1.87009774       7.28389405      -0.16145279      -0.19311296       1.66593017
P        4.89922981       2.73235108       5.36247818      -0.32988863       1.26780871      -0.30058277
P        6.49330978      -0.27877338       5.18800817       0.21848547      -0.02445936       0.69217750
P        6.56074097       0.44167691       7.33442857       0.03511599      -0.37344030       0.85815137
P        8.20902948       1.91204649       7.35024928      -0.05932817       0.06175587       1.05941741
P        6.61527522       4.28327005       5.21874746      -0.49995723      -0.15291595       0.90947790
36
Lattice="6.58012104664396 4.652953351524507 0.0 3.2790605061304188 -4.63718705508585 0.0 0.0 0.0 30.10888" Properties=species:S:1:pos:R:3:forces:R:3 spacegroup="P 1" unit_cell=conventional occupancy="_JSON {\"0\": {\"P\": 1.0}, \"1\": {\"P\": 1.0}, \"2\": {\"P\": 1.0}, \"3\": {\"P\": 1.0}}" thickness=2.108879999999999 dz=15.89112 energy=6.704290986061096 pbc="T T T"
P        1.64711678      -1.85021604      -3.26664014       0.01120676      -0.30353525      -0.99447587
P        3.23406551      -4.29151753      -1.13874541       0.05572060       0.21420944      -1.16083607
P        4.96214715      -2.76532777      -1.29076777       0.42067553      -1.10678159       0.01348913
P        3.28633704      -0.43710479      -3.25078611       0.07800636       0.54586683      -0.75987355
P        4.92749748      -1.83279972      -3.22244165       0.03454621      -0.19576648      -1.17778324
P        3.35879935       0.26282491      -1.12951558      -0.26899326       0.58963537      -0.69354424
P        4.84728420       2.03453686      -1.12517938       0.13841358      -0.52515233      -0.53328702
P        4.92657273       2.76570191      -3.24133862      -0.04716278      -0.20813830      -0.73594518
P        6.57230114      -0.43712679      -3.27904306       0.14883038       0.20659646      -1.25273427
P        6.54299463       0.44260613      -1.27578661      -0.29312260       0.69923154      -0.33343327
P        8.22570927       1.98786272      -1.19175595      -0.16758442      -0.41509500      -0.69087733
P        6.58600192       4.20271088      -3.25278389      -0.25259908       0.30956341      -0.80255479
P        1.99164870      -2.44004648       3.08839207       0.29127052       0.16064961       0.40004331
P        7.57201322      -0.94699032       2.95055126       0.51353621      -0.79661556       0.93097571
P        4.69447251      -1.56779025       0.93126241       0.01525223      -0.47393018      -0.43592170
P        6.75069559      -0.73587332       1.01863127      -0.17140558       0.29124066      -1.01255026
P        3.95296591      -1.33653896       2.97913757      -0.04808907       0.33771092       0.41311514
P        3.11782389       0.73193994       3.09891934       0.39396954      -0.15336309       0.86592719
P        0.36457476      -0.17271094       0.99484372       0.24283609       0.64106401       0.12355701
P        2.33090977       0.97692906       1.15374787      -0.87290414       0.67434520      -0.99154368
P        9.50912611       0.18264522       3.08309271      -0.05817202      -0.00734476      -0.22954047
P        5.95084624       1.36407262       1.16678515       0.16959938      -0.63542019      -0.67336398
P        7.80716072       2.49619973       1.04244937       0.12848680      -0.11781692      -0.01786029
P        5.17733739       1.59520871       3.14907539      -0.19172370       0.43654133       0.85955769
P        1.61562859      -1.92616518       5.30578916      -0.00692376       0.08993904       0.81400044
P        3.28690641      -4.20202832       7.34122878      -0.04146589      -0.10006341       1.00474033
P        4.92306408      -2.74027373       7.33795933       0.25040390       0.15685108       0.74940696
P        3.30710975      -0.47275775       5.41794667       0.41902362      -0.81456190       0.08396316
P        5.02679501      -2.03609267       5.24242498      -0.22419167       0.16767240       0.08842760
P        3.28496481       0.44266761       7.38416883      -0.10119753      -0.08710006       1.53198928
P        4.93445961       1.85678775       7.32339160      -0.17359627       0.14319400       1.38018352
P        4.88765338       2.75311700       5.39612015      -0.25088440       1.13766080      -0.13975072
P        6.48436548      -0.25899502       5.21136127       0.32412186      -0.22824389       0.66339526
P        6.55883721       0.43962752       7.36747609       0.08524288      -0.48967414       0.77432115
P        8.20659077       1.91110363       7.38868692      -0.05972312       0.08398040       1.00524198
P        6.61249078       4.28760677       5.25118245      -0.49140301      -0.22735032       0.93354059
36
Lattice="6.58012104664396 4.652953351524507 0.0 3.2790605061304188 -4.63718705508585 0.0 0.0 0.0 30.10888" Properties=species:S:1:pos:R:3:forces:R:3 spacegroup="P 1" unit_cell=conventional occupancy="_JSON {\"0\": {\"P\": 1.0}, \"1\": {\"P\": 1.0}, \"2\": {\"P\": 1.0}, \"3\": {\"P\": 1.0}}" thickness=2.108879999999999 dz=15.89112 energy=5.8492655754089355 pbc="T T T"
P        1.64798432      -1.84831848      -3.30518447       0.01929907      -0.32493535      -0.90593308
P        3.22945480      -4.29505118      -1.17747789       0.02983361       0.20678973      -1.17249089
P        4.97664129      -2.79473815      -1.32194257       0.24150226      -0.78425828      -0.20255566
P        3.28849252      -0.43164879      -3.28229293       0.03539936       0.56171270      -0.72895402
P        4.92813286      -1.82465061      -3.26223779       0.03937119      -0.41910894      -0.86454357