LAMMPS (27 Oct 2021)
  using 64 OpenMP thread(s) per MPI task
units metal
atom_style atomic
atom_modify map array sort 0 0
boundary p p p
box tilt large
region cell prism    0 8.059030207162023 0 5.6794138418255855 0 30.10888     1.3112768214833054e-16 0.0 0.0     units box
create_box 4 cell
Created triclinic box = (0.0000000 0.0000000 0.0000000) to (8.0590302 5.6794138 30.108880) with tilt (1.3112768e-16 0.0000000 0.0000000)
  1 by 1 by 1 MPI processor grid
echo none
Created 12 atoms
  using lattice units in triclinic box = (0.0000000 0.0000000 0.0000000) to (8.0590302 5.6794138 30.108880) with tilt (1.3112768e-16 0.0000000 0.0000000)
  create_atoms CPU = 0.003 seconds
Setting atom values ...
  1 settings made for type
Setting atom values ...
  1 settings made for type
Setting atom values ...
  1 settings made for type
Setting atom values ...
  1 settings made for type
Setting atom values ...
  1 settings made for type
Setting atom values ...
  1 settings made for type
Setting atom values ...
  1 settings made for type
Setting atom values ...
  1 settings made for type
Setting atom values ...
  1 settings made for type
Setting atom values ...
  1 settings made for type
Setting atom values ...
  1 settings made for type
Setting atom values ...
  1 settings made for type
pair_style sw
pair_coeff * * bp.sw T T B B
neighbor        2.0 bin
neigh_modify every 1 delay 0 check yes
mass 1 30.973761990032176782960959826596
mass 2 30.973761990032176782960959826596
mass 3 30.973761990032176782960959826596
mass 4 30.973761990032176782960959826596
variable pxx equal pxx
variable pyy equal pyy
variable pzz equal pzz
variable pxy equal pxy
variable pxz equal pxz
variable pyz equal pyz
thermo_style custom pe pxx emol ecoul
variable fx atom fx
variable fy atom fy
variable fz atom fz
variable pe equal pe
neigh_modify delay 0 every 1 check yes
echo none
run 0
WARNING: No fixes with time integration, atoms won't move (src/verlet.cpp:60)
Neighbor list info ...
  update every 1 steps, delay 0 steps, check yes
  max neighbors/atom: 2000, page size: 100000
  master list distance cutoff = 4.790241
  ghost atom cutoff = 4.790241
  binsize = 2.3951205, bins = 4 3 13
  1 neighbor lists, perpetual/occasional/extra = 1 0 0
  (1) pair sw, perpetual
      attributes: full, newton on
      pair build: full/bin/atomonly
      stencil: full/bin/3d
      bin: standard
Per MPI rank memory allocation (min/avg/max) = 58.47 | 58.47 | 58.47 Mbytes
PotEng Pxx E_mol E_coul 
  -6.4277473    227.25169            0            0 
Loop time of 2.555e-06 on 64 procs for 0 steps with 12 atoms

821.9% CPU use with 1 MPI tasks x 64 OpenMP threads

MPI task timing breakdown:
Section |  min time  |  avg time  |  max time  |%varavg| %total
---------------------------------------------------------------
Pair    | 0          | 0          | 0          |   0.0 |  0.00
Neigh   | 0          | 0          | 0          |   0.0 |  0.00
Comm    | 0          | 0          | 0          |   0.0 |  0.00
Output  | 0          | 0          | 0          |   0.0 |  0.00
Modify  | 0          | 0          | 0          |   0.0 |  0.00
Other   |            | 2.555e-06  |            |       |100.00

Nlocal:        12.0000 ave          12 max          12 min
Histogram: 1 0 0 0 0 0 0 0 0 0
Nghost:        116.000 ave         116 max         116 min
Histogram: 1 0 0 0 0 0 0 0 0 0
Neighs:         0.00000 ave           0 max           0 min
Histogram: 1 0 0 0 0 0 0 0 0 0
FullNghs:      192.000 ave         192 max         192 min
Histogram: 1 0 0 0 0 0 0 0 0 0

Total # of neighbors = 192
Ave neighs/atom = 16.000000
Neighbor list builds = 0
Dangerous builds = 0
Total wall time: 0:00:00
