
     Program PWSCF v.7.0 starts on 16Dec2023 at  8:23:18 

     This program is part of the open-source Quantum ESPRESSO suite
     for quantum simulation of materials; please cite
         "P. Giannozzi et al., J. Phys.:Condens. Matter 21 395502 (2009);
         "P. Giannozzi et al., J. Phys.:Condens. Matter 29 465901 (2017);
         "P. Giannozzi et al., J. Chem. Phys. 152 154105 (2020);
          URL http://www.quantum-espresso.org", 
     in publications or presentations arising from this work. More details at
     http://www.quantum-espresso.org/quote

     Parallel version (MPI & OpenMP), running on      32 processor cores
     Number of MPI processes:                32
     Threads/MPI process:                     1

     MPI processes distributed on     8 nodes
     R & G space division:  proc/nbgrp/npool/nimage =      32
     240972 MiB available memory on the printing compute node when the environment starts
 
     Waiting for input...
     Reading input from standard input

     Current dimensions of program PWSCF are:
     Max number of different atomic species (ntypx) = 10
     Max number of k-points (npk) =  40000
     Max angular momentum in pseudopotentials (lmaxx) =  4
     Presently no symmetry can be used with electric field


     IMPORTANT: XC functional enforced from input :
     Exchange-correlation= VDW-DF-C09
                           (   1   4  16   0   1   0   0)
     Any further DFT definition will be discarded
     Please, verify this is what you really want


     gamma-point specific algorithms are used

     Subspace diagonalization in iterative solution of the eigenvalue problem:
     a serial algorithm will be used

 
     Parallelization info
     --------------------
     sticks:   dense  smooth     PW     G-vecs:    dense   smooth      PW
     Min        1118    1118    278               113465   113465   14174
     Max        1122    1122    280               113472   113472   14184
     Sum       35785   35785   8947              3630921  3630921  453767
 
     Using Slab Decomposition
 


     bravais-lattice index     =            0
     lattice parameter (alat)  =      56.9686  a.u.
     unit-cell volume          =  106225.9214 (a.u.)^3
     number of atoms/cell      =          546
     number of atomic types    =            2
     number of electrons       =      4732.00
     number of Kohn-Sham states=         2839
     kinetic-energy cutoff     =      40.0000  Ry
     charge density cutoff     =     160.0000  Ry
     scf convergence threshold =      1.0E-08
     mixing beta               =       0.3000
     number of iterations used =            8  local-TF  mixing
     energy convergence thresh.=      1.0E-04
     force convergence thresh. =      1.0E-03
     Exchange-correlation= VDW-DF-C09
                           (   1   4  16   0   1   0   0)
     nstep                     =           50


     GPU acceleration is ACTIVE.


     GPU used by master process:

        Device Number: 0
        Device name: NVIDIA A100-SXM4-40GB
        Compute capability : 80
        Ratio of single to double precision performance  : 2
        Memory Clock Rate (KHz): 1215000
        Memory Bus Width (bits): 5120
        Peak Memory Bandwidth (GB/s): ******

     celldm(1)=  56.968595  celldm(2)=   0.000000  celldm(3)=   0.000000
     celldm(4)=   0.000000  celldm(5)=   0.000000  celldm(6)=   0.000000

     crystal axes: (cart. coord. in units of alat)
               a(1) = (   1.000000   0.000000  -0.000000 )  
               a(2) = (  -0.500000   0.866025  -0.000000 )  
               a(3) = (  -0.000000   0.000000   0.663427 )  

     reciprocal axes: (cart. coord. in units 2 pi/alat)
               b(1) = (  1.000000  0.577350  0.000000 )  
               b(2) = ( -0.000000  1.154701 -0.000000 )  
               b(3) = (  0.000000  0.000000  1.507324 )  


     PseudoPot. # 1 for Mo read from file:
     /global/homes/j/jdgeorga/espresso/pseudo_new/Mo_ONCV_PBE-1.2.upf
     MD5 check sum: 2665c9f4159700498d9a5f7573bd8e9f
     Pseudo is Norm-conserving, Zval = 14.0
     Generated using ONCVPSP code by D. R. Hamann
     Using radial grid of  602 points,  6 beta functions with: 
                l(1) =   0
                l(2) =   0
                l(3) =   1
                l(4) =   1
                l(5) =   2
                l(6) =   2

     PseudoPot. # 2 for S  read from file:
     /global/homes/j/jdgeorga/espresso/pseudo_new/S_ONCV_PBE-1.2.upf
     MD5 check sum: f9d020296ee6110346977bfd66d424f6
     Pseudo is Norm-conserving, Zval =  6.0
     Generated using ONCVPSP code by D. R. Hamann
     Using radial grid of  602 points,  4 beta functions with: 
                l(1) =   0
                l(2) =   0
                l(3) =   1
                l(4) =   1

     atomic species   valence    mass     pseudopotential
        Mo            14.00    95.94000     Mo( 1.00)
        S              6.00    78.96000     S ( 1.00)

     No symmetry found


                                    s                        frac. trans.

      isym =  1     identity                                     

 cryst.   s( 1) = (     1          0          0      )
                  (     0          1          0      )
                  (     0          0          1      )

 cart.    s( 1) = (  1.0000000  0.0000000  0.0000000 )
                  (  0.0000000  1.0000000  0.0000000 )
                  (  0.0000000  0.0000000  1.0000000 )


   Cartesian axes

     site n.     atom                  positions (alat units)
         1           Mo  tau(   1) = (  -0.0267477   0.0543384  -0.1089069  )
         2           S   tau(   2) = (   0.0338803   0.0506487  -0.1606937  )
         3           S   tau(   3) = (   0.0335352   0.0499885  -0.0569764  )
         4           S   tau(   4) = (  -0.0539377   0.1092280  -0.1600109  )
         5           S   tau(   5) = (  -0.0531525   0.1080510  -0.0562903  )
         6           Mo  tau(   6) = (   0.1544310   0.0425801  -0.1075570  )
         7           S   tau(   7) = (   0.2157950   0.0392947  -0.1582553  )
         8           S   tau(   8) = (   0.2138549   0.0386669  -0.0544937  )
         9           Mo  tau(   9) = (   0.0672556   0.1007370  -0.1082105  )
        10           S   tau(  10) = (   0.1282928   0.0973918  -0.1593627  )
        11           S   tau(  11) = (   0.1270401   0.0962445  -0.0556300  )
        12           Mo  tau(  12) = (  -0.0200747   0.1589738  -0.1075871  )
        13           S   tau(  13) = (   0.0405190   0.1558504  -0.1593923  )
        14           S   tau(  14) = (   0.0403233   0.1542120  -0.0556619  )
        15           Mo  tau(  15) = (  -0.1078199   0.2168371  -0.1059648  )
        16           S   tau(  16) = (  -0.0475545   0.2140467  -0.1583058  )
        17           S   tau(  17) = (  -0.0468141   0.2122038  -0.0545487  )
        18           S   tau(  18) = (  -0.1359577   0.2714908  -0.1566328  )
        19           S   tau(  19) = (  -0.1347899   0.2699189  -0.0528409  )
        20           Mo  tau(  20) = (   0.3354374   0.0328253  -0.1040613  )
        21           S   tau(  21) = (   0.3964859   0.0305245  -0.1550813  )
        22           S   tau(  22) = (   0.3952199   0.0300777  -0.0512533  )
        23           Mo  tau(  23) = (   0.2481123   0.0898117  -0.1054246  )
        24           S   tau(  24) = (   0.3093478   0.0871368  -0.1561721  )
        25           S   tau(  25) = (   0.3075952   0.0863057  -0.0523595  )
        26           Mo  tau(  26) = (   0.1608869   0.1475204  -0.1064086  )
        27           S   tau(  27) = (   0.2220212   0.1445576  -0.1572872  )
        28           S   tau(  28) = (   0.2204183   0.1433015  -0.0534936  )
        29           Mo  tau(  29) = (   0.0735637   0.2056016  -0.1064681  )
        30           S   tau(  30) = (   0.1343850   0.2026098  -0.1578044  )
        31           S   tau(  31) = (   0.1335065   0.2009384  -0.0540269  )
        32           Mo  tau(  32) = (  -0.0141120   0.2635680  -0.1055531  )
        33           S   tau(  33) = (   0.0463957   0.2607564  -0.1574151  )
        34           S   tau(  34) = (   0.0464005   0.2588487  -0.0536332  )
        35           Mo  tau(  35) = (  -0.1023522   0.3210537  -0.1041538  )
        36           S   tau(  36) = (  -0.0419608   0.3184092  -0.1563302  )
        37           S   tau(  37) = (  -0.0413846   0.3166467  -0.0525321  )
        38           Mo  tau(  38) = (  -0.1911800   0.3779895  -0.1029718  )
        39           S   tau(  39) = (  -0.1306788   0.3752934  -0.1551605  )
        40           S   tau(  40) = (  -0.1300607   0.3741019  -0.0513404  )
        41           S   tau(  41) = (  -0.2196589   0.4315485  -0.1545553  )
        42           S   tau(  42) = (  -0.2194357   0.4312457  -0.0507153  )
        43           Mo  tau(  43) = (   0.5165681   0.0254948  -0.1025564  )
        44           S   tau(  44) = (   0.5766492   0.0234750  -0.1548301  )
        45           S   tau(  45) = (   0.5773969   0.0233780  -0.0509900  )
        46           Mo  tau(  46) = (   0.4289792   0.0814105  -0.1026125  )
        47           S   tau(  47) = (   0.4895216   0.0794573  -0.1542793  )
        48           S   tau(  48) = (   0.4893203   0.0789990  -0.0504110  )
        49           Mo  tau(  49) = (   0.3414577   0.1378217  -0.1033262  )
        50           S   tau(  50) = (   0.4023301   0.1355679  -0.1544912  )
        51           S   tau(  51) = (   0.4013179   0.1348291  -0.0506184  )
        52           Mo  tau(  52) = (   0.2540439   0.1949643  -0.1042338  )
        53           S   tau(  53) = (   0.3149977   0.1922868  -0.1552169  )
        54           S   tau(  54) = (   0.3136566   0.1913096  -0.0513666  )
        55           Mo  tau(  55) = (   0.1666424   0.2526958  -0.1047224  )
        56           S   tau(  56) = (   0.2274326   0.2497583  -0.1559086  )
        57           S   tau(  57) = (   0.2263710   0.2485248  -0.0520873  )
        58           Mo  tau(  58) = (   0.0790381   0.3105780  -0.1044488  )
        59           S   tau(  59) = (   0.1395730   0.3076581  -0.1560400  )
        60           S   tau(  60) = (   0.1391717   0.3062118  -0.0522312  )
        61           Mo  tau(  61) = (  -0.0090045   0.3681466  -0.1036068  )
        62           S   tau(  62) = (   0.0514007   0.3653970  -0.1555161  )
        63           S   tau(  63) = (   0.0515729   0.3639391  -0.0516966  )
        64           Mo  tau(  64) = (  -0.0975959   0.4251787  -0.1027836  )
        65           S   tau(  65) = (  -0.0370871   0.4225074  -0.1547519  )
        66           S   tau(  66) = (  -0.0367835   0.4213598  -0.0509091  )
        67           Mo  tau(  67) = (  -0.1866132   0.4817968  -0.1025708  )
        68           S   tau(  68) = (  -0.1258326   0.4789281  -0.1543589  )
        69           S   tau(  69) = (  -0.1258791   0.4784061  -0.0505063  )
        70           Mo  tau(  70) = (  -0.2757082   0.5383870  -0.1032601  )
        71           S   tau(  71) = (  -0.2146581   0.5350100  -0.1547598  )
        72           S   tau(  72) = (  -0.2152871   0.5352993  -0.0509237  )
        73           S   tau(  73) = (  -0.3033489   0.5913238  -0.1560400  )
        74           S   tau(  74) = (  -0.3044007   0.5923945  -0.0522312  )
        75           Mo  tau(  75) = (   0.6978378   0.0179711  -0.1047224  )
        76           S   tau(  76) = (   0.7573423   0.0150784  -0.1578044  )
        77           S   tau(  77) = (   0.7592289   0.0151532  -0.0540269  )
        78           Mo  tau(  78) = (   0.6102632   0.0743123  -0.1030690  )
        79           S   tau(  79) = (   0.6699867   0.0720857  -0.1559086  )
        80           S   tau(  80) = (   0.6715857   0.0717831  -0.0520873  )
        81           Mo  tau(  81) = (   0.5224722   0.1302768  -0.1020750  )
        82           S   tau(  82) = (   0.5825716   0.1283086  -0.1544000  )
        83           S   tau(  83) = (   0.5834247   0.1278341  -0.0505211  )
        84           Mo  tau(  84) = (   0.4346158   0.1863808  -0.1019401  )
        85           S   tau(  85) = (   0.4950724   0.1842313  -0.1537177  )
        86           S   tau(  86) = (   0.4950267   0.1837313  -0.0498032  )
        87           Mo  tau(  87) = (   0.3468539   0.2430450  -0.1024495  )
        88           S   tau(  88) = (   0.4075023   0.2404515  -0.1538427  )
        89           S   tau(  89) = (   0.4067987   0.2399729  -0.0499278  )
        90           Mo  tau(  90) = (   0.2592226   0.3003671  -0.1030690  )
        91           S   tau(  91) = (   0.3198306   0.2973505  -0.1544000  )
        92           S   tau(  92) = (   0.3189931   0.2968490  -0.0505211  )
        93           Mo  tau(  93) = (   0.1715973   0.3580640  -0.1032601  )
        94           S   tau(  94) = (   0.2320032   0.3548962  -0.1548301  )
        95           S   tau(  95) = (   0.2315453   0.3542972  -0.0509900  )
        96           Mo  tau(  96) = (   0.0837562   0.4156452  -0.1028912  )
        97           S   tau(  97) = (   0.1439968   0.4126235  -0.1547598  )
        98           S   tau(  98) = (   0.1440608   0.4119340  -0.0509237  )
        99           Mo  tau(  99) = (  -0.0044816   0.4727363  -0.1023449  )
       100           S   tau( 100) = (   0.0558159   0.4699485  -0.1543138  )
       101           S   tau( 101) = (   0.0560854   0.4693157  -0.0504527  )
       102           Mo  tau( 102) = (  -0.0931161   0.5293066  -0.1022054  )
       103           S   tau( 103) = (  -0.0325188   0.5265919  -0.1539959  )
       104           S   tau( 104) = (  -0.0325455   0.5262300  -0.0501215  )
       105           Mo  tau( 105) = (  -0.1819209   0.5856690  -0.1028912  )
       106           S   tau( 106) = (  -0.1209227   0.5827144  -0.1543138  )
       107           S   tau( 107) = (  -0.1216055   0.5827974  -0.0504527  )
       108           Mo  tau( 108) = (  -0.2705527   0.6422886  -0.1044488  )
       109           S   tau( 109) = (  -0.2092593   0.6388138  -0.1555161  )
       110           S   tau( 110) = (  -0.2106081   0.6393936  -0.0516966  )
       111           Mo  tau( 111) = (  -0.3587278   0.6995178  -0.1064681  )
       112           S   tau( 112) = (  -0.2973782   0.6954686  -0.1574151  )
       113           S   tau( 113) = (  -0.2990328   0.6964182  -0.0536332  )
       114           S   tau( 114) = (  -0.3852912   0.7530109  -0.1593923  )
       115           S   tau( 115) = (  -0.3866123   0.7539996  -0.0556619  )
       116           Mo  tau( 116) = (   0.8791314   0.0078790  -0.1082105  )
       117           S   tau( 117) = (   0.9391968   0.0040192  -0.1606937  )
       118           S   tau( 118) = (   0.9399410   0.0040505  -0.0569764  )
       119           Mo  tau( 119) = (   0.7918001   0.0655743  -0.1064086  )
       120           S   tau( 120) = (   0.8515098   0.0624114  -0.1593627  )
       121           S   tau( 121) = (   0.8531298   0.0619001  -0.0556300  )
       122           Mo  tau( 122) = (   0.7041340   0.1225288  -0.1042338  )
       123           S   tau( 123) = (   0.7637988   0.1199996  -0.1572872  )
       124           S   tau( 124) = (   0.7656881   0.1192395  -0.0534936  )
       125           Mo  tau( 125) = (   0.6160900   0.1788642  -0.1024495  )
       126           S   tau( 126) = (   0.6759759   0.1766550  -0.1552169  )
       127           S   tau( 127) = (   0.6774927   0.1759822  -0.0513666  )
       128           Mo  tau( 128) = (   0.5278280   0.2349962  -0.1015411  )
       129           S   tau( 129) = (   0.5880118   0.2326840  -0.1538427  )
       130           S   tau( 130) = (   0.5887781   0.2323140  -0.0499278  )
       131           Mo  tau( 131) = (   0.4395966   0.2914160  -0.1015411  )
       132           S   tau( 132) = (   0.4999993   0.2886763  -0.1533999  )
       133           S   tau( 133) = (   0.4999992   0.2886764  -0.0494840  )
       134           Mo  tau( 134) = (   0.3515848   0.3484140  -0.1020750  )
       135           S   tau( 135) = (   0.4120107   0.3451657  -0.1537177  )
       136           S   tau( 136) = (   0.4116005   0.3454553  -0.0498032  )
       137           Mo  tau( 137) = (   0.2637930   0.4059181  -0.1025564  )
       138           S   tau( 138) = (   0.3240492   0.4023598  -0.1542793  )
       139           S   tau( 139) = (   0.3237529   0.4027633  -0.0504110  )
       140           Mo  tau( 140) = (   0.1760583   0.4635176  -0.1025708  )
       141           S   tau( 141) = (   0.2360975   0.4600234  -0.1545553  )
       142           S   tau( 142) = (   0.2362482   0.4603681  -0.0507153  )
       143           Mo  tau( 143) = (   0.0881651   0.5207336  -0.1022054  )
       144           S   tau( 144) = (   0.1481524   0.5175896  -0.1543589  )
       145           S   tau( 145) = (   0.1486278   0.5178103  -0.0505063  )
       146           Mo  tau( 146) = (  -0.0000007   0.5773515  -0.1019582  )
       147           S   tau( 147) = (   0.0602174   0.5745697  -0.1539959  )
       148           S   tau( 148) = (   0.0605442   0.5747276  -0.0501215  )
       149           Mo  tau( 149) = (  -0.0883596   0.6335397  -0.1023449  )
       150           S   tau( 150) = (  -0.0277007   0.6308928  -0.1539959  )
       151           S   tau( 151) = (  -0.0280008   0.6310969  -0.0501215  )
       152           Mo  tau( 152) = (  -0.1766755   0.6897514  -0.1036068  )
       153           S   tau( 153) = (  -0.1155564   0.6868913  -0.1547519  )
       154           S   tau( 154) = (  -0.1167020   0.6872022  -0.0509091  )
       155           Mo  tau( 155) = (  -0.2646895   0.7464640  -0.1055531  )
       156           S   tau( 156) = (  -0.2032712   0.7431611  -0.1563302  )
       157           S   tau( 157) = (  -0.2050857   0.7435434  -0.0525321  )
       158           Mo  tau( 158) = (  -0.3522894   0.8039249  -0.1075871  )
       159           S   tau( 159) = (  -0.2908550   0.8001867  -0.1583058  )
       160           S   tau( 160) = (  -0.2928212   0.8004669  -0.0545487  )
       161           Mo  tau( 161) = (  -0.4395698   0.8620216  -0.1089069  )
       162           S   tau( 162) = (  -0.3784390   0.8581240  -0.1600109  )
       163           S   tau( 163) = (  -0.3798509   0.8580325  -0.0562903  )
       164           Mo  tau( 164) = (   0.8859091   0.1124535  -0.1075570  )
       165           Mo  tau( 165) = (   0.7981646   0.1699681  -0.1054246  )
       166           S   tau( 166) = (   0.8580723   0.1672390  -0.1582553  )
       167           S   tau( 167) = (   0.8595861   0.1658727  -0.0544937  )
       168           Mo  tau( 168) = (   0.7099141   0.2268026  -0.1033262  )
       169           S   tau( 169) = (   0.7698634   0.2243371  -0.1561721  )
       170           S   tau( 170) = (   0.7714594   0.2232348  -0.0523595  )
       171           Mo  tau( 171) = (   0.6212816   0.2832004  -0.1019401  )
       172           S   tau( 172) = (   0.6814297   0.2806466  -0.1544912  )
       173           S   tau( 173) = (   0.6825756   0.2801394  -0.0506184  )
       174           Mo  tau( 174) = (   0.5325733   0.3396168  -0.1015411  )
       175           S   tau( 175) = (   0.5929148   0.3366320  -0.1537177  )
       176           S   tau( 176) = (   0.5933707   0.3368425  -0.0498032  )
       177           Mo  tau( 177) = (   0.4441005   0.3964479  -0.1019401  )
       178           S   tau( 178) = (   0.5044839   0.3928935  -0.1538427  )
       179           S   tau( 179) = (   0.5044212   0.3937422  -0.0499278  )
       180           Mo  tau( 180) = (   0.3560119   0.4538145  -0.1026125  )
       181           S   tau( 181) = (   0.4162381   0.4498146  -0.1544912  )
       182           S   tau( 182) = (   0.4161044   0.4510605  -0.0506184  )
       183           Mo  tau( 183) = (   0.2682415   0.5114663  -0.1029718  )
       184           S   tau( 184) = (   0.3281900   0.5073975  -0.1550813  )
       185           S   tau( 185) = (   0.3284360   0.5087173  -0.0512533  )
       186           Mo  tau( 186) = (   0.1805824   0.5689179  -0.1027836  )
       187           S   tau( 187) = (   0.2403258   0.5652100  -0.1551605  )
       188           S   tau( 188) = (   0.2410486   0.5663410  -0.0513404  )
       189           Mo  tau( 189) = (   0.0928392   0.6257784  -0.1023449  )
       190           S   tau( 190) = (   0.1526414   0.6226558  -0.1547519  )
       191           S   tau( 191) = (   0.1534834   0.6234924  -0.0509091  )
       192           Mo  tau( 192) = (   0.0049489   0.6820142  -0.1022054  )
       193           S   tau( 193) = (   0.0651047   0.6793916  -0.1543138  )
       194           S   tau( 194) = (   0.0655180   0.6799414  -0.0504527  )
       195           Mo  tau( 195) = (  -0.0829885   0.7379578  -0.1027836  )
       196           S   tau( 196) = (  -0.0223220   0.7355368  -0.1543589  )
       197           S   tau( 197) = (  -0.0227507   0.7358381  -0.0505063  )
       198           Mo  tau( 198) = (  -0.1707853   0.7941394  -0.1041538  )
       199           S   tau( 199) = (  -0.1096491   0.7915511  -0.1551605  )
       200           S   tau( 200) = (  -0.1109900   0.7916116  -0.0513404  )
       201           Mo  tau( 201) = (  -0.2583057   0.8509829  -0.1059648  )
       202           S   tau( 202) = (  -0.1969053   0.8480240  -0.1566328  )
       203           S   tau( 203) = (  -0.1988506   0.8477986  -0.0528409  )
       204           Mo  tau( 204) = (   0.8038537   0.2740871  -0.1040613  )
       205           Mo  tau( 205) = (   0.7150068   0.3308041  -0.1026125  )
       206           S   tau( 206) = (   0.7753220   0.3281070  -0.1550813  )
       207           S   tau( 207) = (   0.7763420   0.3272341  -0.0512533  )
       208           Mo  tau( 208) = (   0.6259409   0.3873382  -0.1020750  )
       209           S   tau( 209) = (   0.6864271   0.3842119  -0.1542793  )
       210           S   tau( 210) = (   0.6869247   0.3842667  -0.0504110  )
       211           Mo  tau( 211) = (   0.5370541   0.4441199  -0.1024495  )
       212           S   tau( 212) = (   0.5975957   0.4403699  -0.1544000  )
       213           S   tau( 213) = (   0.5975801   0.4413460  -0.0505211  )
       214           Mo  tau( 214) = (   0.4486261   0.5014048  -0.1033262  )
       215           S   tau( 215) = (   0.5090243   0.4970872  -0.1552169  )
       216           S   tau( 216) = (   0.5088486   0.4987372  -0.0513666  )
       217           Mo  tau( 217) = (   0.3607068   0.5591166  -0.1040613  )
       218           S   tau( 218) = (   0.4207867   0.5545551  -0.1561721  )
       219           S   tau( 219) = (   0.4209432   0.5564885  -0.0523595  )
       220           Mo  tau( 220) = (   0.2731354   0.6168614  -0.1041538  )
       221           S   tau( 221) = (   0.3328609   0.6125396  -0.1566328  )
       222           S   tau( 222) = (   0.3336383   0.6143369  -0.0528409  )
       223           Mo  tau( 223) = (   0.1856779   0.6741564  -0.1036068  )
       224           S   tau( 224) = (   0.2452299   0.6704841  -0.1563302  )
       225           S   tau( 225) = (   0.2464683   0.6718643  -0.0525321  )
       226           Mo  tau( 226) = (   0.0981626   0.7307403  -0.1028912  )
       227           S   tau( 227) = (   0.1578566   0.7278436  -0.1555161  )
       228           S   tau( 228) = (   0.1590330   0.7287217  -0.0516966  )
       229           Mo  tau( 229) = (   0.0105528   0.7867400  -0.1025708  )
       230           S   tau( 230) = (   0.0706592   0.7844210  -0.1547598  )
       231           S   tau( 231) = (   0.0712243   0.7848211  -0.0509237  )
       232           Mo  tau( 232) = (  -0.0770636   0.8425986  -0.1029718  )
       233           S   tau( 233) = (  -0.0164407   0.8404826  -0.1545553  )
       234           S   tau( 234) = (  -0.0168145   0.8404407  -0.0507153  )
       235           Mo  tau( 235) = (   0.7196368   0.4346161  -0.1025564  )
       236           Mo  tau( 236) = (   0.6305121   0.4913497  -0.1030690  )
       237           S   tau( 237) = (   0.6913455   0.4876578  -0.1548301  )
       238           S   tau( 238) = (   0.6910556   0.4883538  -0.0509900  )
       239           Mo  tau( 239) = (   0.5418200   0.5485360  -0.1042338  )
       240           S   tau( 240) = (   0.6025786   0.5441851  -0.1559086  )
       241           S   tau( 241) = (   0.6020412   0.5457212  -0.0520873  )
       242           Mo  tau( 242) = (   0.4537210   0.6062492  -0.1054246  )
       243           S   tau( 243) = (   0.5141779   0.6014718  -0.1572872  )
       244           S   tau( 244) = (   0.5138915   0.6034881  -0.0534936  )
       245           Mo  tau( 245) = (   0.3661235   0.6642345  -0.1059648  )
       246           S   tau( 246) = (   0.4261306   0.6594953  -0.1582553  )
       247           S   tau( 247) = (   0.4265570   0.6614894  -0.0544937  )
       248           Mo  tau( 248) = (   0.2787994   0.7220224  -0.1055531  )
       249           S   tau( 249) = (   0.3384074   0.7178211  -0.1583058  )
       250           S   tau( 250) = (   0.3396332   0.7193837  -0.0545487  )
       251           Mo  tau( 251) = (   0.1915125   0.7791878  -0.1044488  )
       252           S   tau( 252) = (   0.2509805   0.7758294  -0.1574151  )
       253           S   tau( 253) = (   0.2526302   0.7767875  -0.0536332  )
       254           Mo  tau( 254) = (   0.1041088   0.8356034  -0.1032601  )
       255           S   tau( 255) = (   0.1637738   0.8330726  -0.1560400  )
       256           S   tau( 256) = (   0.1652269   0.8334481  -0.0522312  )
       257           Mo  tau( 257) = (   0.6355177   0.5953621  -0.1047224  )
       258           Mo  tau( 258) = (   0.5473109   0.6529343  -0.1064086  )
       259           S   tau( 259) = (   0.6082706   0.6483409  -0.1578044  )
       260           S   tau( 260) = (   0.6072624   0.6499373  -0.0540269  )
       261           Mo  tau( 261) = (   0.4596578   0.7109954  -0.1075570  )
       262           S   tau( 262) = (   0.5201953   0.7062259  -0.1593627  )
       263           S   tau( 263) = (   0.5198281   0.7078844  -0.0556300  )
       264           Mo  tau( 264) = (   0.3723620   0.7691557  -0.1075871  )
       265           S   tau( 265) = (   0.4323746   0.7647024  -0.1600109  )
       266           S   tau( 266) = (   0.4330013   0.7659709  -0.0562903  )
       267           Mo  tau( 267) = (   0.2851620   0.8269351  -0.1064681  )
       268           S   tau( 268) = (   0.3447700   0.8231931  -0.1593923  )
       269           S   tau( 269) = (   0.3462869   0.8238428  -0.0556619  )
       270           Mo  tau( 270) = (   0.5536109   0.7574131  -0.1082105  )
       271           Mo  tau( 271) = (   0.4663154   0.8156944  -0.1089069  )
       272           S   tau( 272) = (   0.5269209   0.8113611  -0.1606937  )
       273           S   tau( 273) = (   0.5265216   0.8119900  -0.0569764  )
       274           Mo  tau( 274) = (   0.0604303   0.0040062   0.1089058  )
       275           S   tau( 275) = (   0.1201490   0.0079953   0.0562898  )
       276           S   tau( 276) = (   0.1215611   0.0079038   0.1600104  )
       277           S   tau( 277) = (   0.0265216   0.0540378   0.0569760  )
       278           S   tau( 278) = (   0.0269209   0.0546668   0.1606933  )
       279           Mo  tau( 279) = (   0.2416944   0.0150449   0.1059646  )
       280           S   tau( 280) = (   0.3011496   0.0182293   0.0528412  )
       281           S   tau( 281) = (   0.3030945   0.0180037   0.1566333  )
       282           Mo  tau( 282) = (   0.1477106   0.0621029   0.1075860  )
       283           S   tau( 283) = (   0.2071789   0.0655610   0.0545484  )
       284           S   tau( 284) = (   0.2091449   0.0658411   0.1583055  )
       285           Mo  tau( 285) = (   0.0536109   0.1086148   0.1082096  )
       286           S   tau( 286) = (   0.1133877   0.1120282   0.0556614  )
       287           S   tau( 287) = (   0.1147088   0.1130169   0.1593917  )
       288           Mo  tau( 288) = (  -0.0403421   0.1550324   0.1075562  )
       289           S   tau( 289) = (   0.0198281   0.1581433   0.0556295  )
       290           S   tau( 290) = (   0.0201952   0.1598020   0.1593622  )
       291           S   tau( 291) = (  -0.0734430   0.2045385   0.0544934  )
       292           S   tau( 292) = (  -0.0738694   0.2065324   0.1582550  )
       293           Mo  tau( 293) = (   0.4229364   0.0234292   0.1029719  )
       294           S   tau( 294) = (   0.4831854   0.0255872   0.0507155  )
       295           S   tau( 295) = (   0.4835593   0.0255452   0.1545553  )
       296           Mo  tau( 296) = (   0.3292147   0.0718884   0.1041539  )
       297           S   tau( 297) = (   0.3890099   0.0744162   0.0513408  )
       298           S   tau( 298) = (   0.3903510   0.0744767   0.1551608  )
       299           Mo  tau( 299) = (   0.2353106   0.1195637   0.1055529  )
       300           S   tau( 300) = (   0.2949144   0.1224844   0.0525326  )
       301           S   tau( 301) = (   0.2967286   0.1228667   0.1563307  )
       302           Mo  tau( 302) = (   0.1412722   0.1665100   0.1064677  )
       303           S   tau( 303) = (   0.2009674   0.1696098   0.0536333  )
       304           S   tau( 304) = (   0.2026216   0.1705591   0.1574152  )
       305           Mo  tau( 305) = (   0.0473108   0.2130935   0.1064083  )
       306           S   tau( 306) = (   0.1072625   0.2160906   0.0540266  )
       307           S   tau( 307) = (   0.1082706   0.2176869   0.1578042  )
       308           Mo  tau( 308) = (  -0.0462790   0.2597787   0.1054247  )
       309           S   tau( 309) = (   0.0138915   0.2625399   0.0534936  )
       310           S   tau( 310) = (   0.0141779   0.2645559   0.1572873  )
       311           Mo  tau( 311) = (  -0.1392932   0.3069112   0.1040615  )
       312           S   tau( 312) = (  -0.0790569   0.3095394   0.0523598  )
       313           S   tau( 313) = (  -0.0792132   0.3114727   0.1561725  )
       314           S   tau( 314) = (  -0.1715641   0.3573104   0.0512536  )
       315           S   tau( 315) = (  -0.1718100   0.3586305   0.1550815  )
       316           Mo  tau( 316) = (   0.6041088   0.0304243   0.1032606  )
       317           S   tau( 317) = (   0.6652270   0.0325798   0.0522315  )
       318           S   tau( 318) = (   0.6637737   0.0329552   0.1560403  )
       319           Mo  tau( 319) = (   0.5105528   0.0792878   0.1025707  )
       320           S   tau( 320) = (   0.5712243   0.0812068   0.0509240  )
       321           S   tau( 321) = (   0.5706592   0.0816068   0.1547599  )
       322           Mo  tau( 322) = (   0.4170114   0.1280700   0.1027836  )
       323           S   tau( 323) = (   0.4772492   0.1301896   0.0505064  )
       324           S   tau( 324) = (   0.4776781   0.1304911   0.1543588  )
       325           Mo  tau( 325) = (   0.3233245   0.1762764   0.1036066  )
       326           S   tau( 326) = (   0.3832978   0.1788256   0.0509093  )
       327           S   tau( 327) = (   0.3844437   0.1791367   0.1547520  )
       328           Mo  tau( 328) = (   0.2294473   0.2237392   0.1044488  )
       329           S   tau( 329) = (   0.2893919   0.2266342   0.0516971  )
       330           S   tau( 330) = (   0.2907407   0.2272141   0.1555165  )
       331           Mo  tau( 331) = (   0.1355177   0.2706657   0.1047229  )
       332           S   tau( 332) = (   0.1955994   0.2736332   0.0522315  )
       333           S   tau( 333) = (   0.1966510   0.2747041   0.1560403  )
       334           Mo  tau( 334) = (   0.0418200   0.3174919   0.1042342  )
       335           S   tau( 335) = (   0.1020411   0.3203066   0.0520876  )
       336           S   tau( 336) = (   0.1025787   0.3218427   0.1559089  )
       337           Mo  tau( 337) = (  -0.0513738   0.3646231   0.1033263  )
       338           S   tau( 338) = (   0.0088486   0.3672905   0.0513669  )
       339           S   tau( 339) = (   0.0090243   0.3689407   0.1552172  )
       340           Mo  tau( 340) = (  -0.1439881   0.4122133   0.1026129  )
       341           S   tau( 341) = (  -0.0838956   0.4149672   0.0506187  )
       342           S   tau( 342) = (  -0.0837619   0.4162133   0.1544912  )
       343           Mo  tau( 343) = (  -0.2362070   0.4601097   0.1025570  )
       344           S   tau( 344) = (  -0.1762471   0.4632645   0.0504111  )
       345           S   tau( 345) = (  -0.1759508   0.4636681   0.1542791  )
       346           S   tau( 346) = (  -0.2684547   0.5117306   0.0509901  )
       347           S   tau( 347) = (  -0.2679968   0.5111316   0.1548301  )
       348           Mo  tau( 348) = (   0.7851620   0.0390927   0.1064677  )
       349           S   tau( 349) = (   0.8462869   0.0421849   0.0556614  )
       350           S   tau( 350) = (   0.8447701   0.0428347   0.1593917  )
       351           Mo  tau( 351) = (   0.6915125   0.0868400   0.1044488  )
       352           S   tau( 352) = (   0.7526300   0.0892404   0.0536333  )
       353           S   tau( 353) = (   0.7509807   0.0901983   0.1574152  )
       354           Mo  tau( 354) = (   0.5981626   0.1352876   0.1028912  )
       355           S   tau( 355) = (   0.6590331   0.1373060   0.0516971  )
       356           S   tau( 356) = (   0.6578565   0.1381842   0.1555165  )
       357           Mo  tau( 357) = (   0.5049490   0.1840136   0.1022054  )
       358           S   tau( 358) = (   0.5655180   0.1860864   0.0504527  )
       359           S   tau( 359) = (   0.5651046   0.1866363   0.1543136  )
       360           Mo  tau( 360) = (   0.4116404   0.2324881   0.1023450  )
       361           S   tau( 361) = (   0.4719992   0.2349309   0.0501214  )
       362           S   tau( 362) = (   0.4722993   0.2351351   0.1539957  )
       363           Mo  tau( 363) = (   0.3180791   0.2803589   0.1028912  )
       364           S   tau( 364) = (   0.3783944   0.2832305   0.0504527  )
       365           S   tau( 365) = (   0.3790774   0.2833135   0.1543136  )
       366           Mo  tau( 366) = (   0.2242918   0.3276409   0.1032606  )
       367           S   tau( 367) = (   0.2847129   0.3307285   0.0509240  )
       368           S   tau( 368) = (   0.2853419   0.3310179   0.1547599  )
       369           Mo  tau( 369) = (   0.1305121   0.3746781   0.1030693  )
       370           S   tau( 370) = (   0.1910556   0.3776740   0.0509901  )
       371           S   tau( 371) = (   0.1913455   0.3783700   0.1548301  )
       372           Mo  tau( 372) = (   0.0370541   0.4219080   0.1024494  )
       373           S   tau( 373) = (   0.0975801   0.4246817   0.0505213  )
       374           S   tau( 374) = (   0.0975957   0.4256579   0.1544000  )
       375           Mo  tau( 375) = (  -0.0558996   0.4695799   0.1019401  )
       376           S   tau( 376) = (   0.0044212   0.4722856   0.0499280  )
       377           S   tau( 377) = (   0.0044839   0.4731343   0.1538426  )
       378           Mo  tau( 378) = (  -0.1484152   0.5176139   0.1020753  )
       379           S   tau( 379) = (  -0.0883995   0.5205726   0.0498033  )
       380           S   tau( 380) = (  -0.0879893   0.5208621   0.1537175  )
       381           Mo  tau( 381) = (  -0.2407774   0.5656607   0.1030693  )
       382           S   tau( 382) = (  -0.1810070   0.5691789   0.0505213  )
       383           S   tau( 383) = (  -0.1801694   0.5686773   0.1544000  )
       384           Mo  tau( 384) = (  -0.3333576   0.6133320   0.1047229  )
       385           S   tau( 385) = (  -0.2736290   0.6175031   0.0520876  )
       386           S   tau( 386) = (  -0.2725675   0.6162695   0.1559089  )
       387           S   tau( 387) = (  -0.3664934   0.6650893   0.0540266  )
       388           S   tau( 388) = (  -0.3656150   0.6634181   0.1578042  )
       389           Mo  tau( 389) = (   0.9663154   0.0503335   0.1089058  )
       390           Mo  tau( 390) = (   0.8723620   0.0968721   0.1075860  )
       391           S   tau( 391) = (   0.9330013   0.1000568   0.0562898  )
       392           S   tau( 392) = (   0.9323746   0.1013255   0.1600104  )
       393           Mo  tau( 393) = (   0.7787995   0.1440055   0.1055529  )
       394           S   tau( 394) = (   0.8396331   0.1466441   0.0545484  )
       395           S   tau( 395) = (   0.8384075   0.1482067   0.1583055  )
       396           Mo  tau( 396) = (   0.6856779   0.1918714   0.1036066  )
       397           S   tau( 397) = (   0.7464682   0.1941636   0.0525326  )
       398           S   tau( 398) = (   0.7452300   0.1955436   0.1563307  )
       399           Mo  tau( 399) = (   0.5928392   0.2402494   0.1023450  )
       400           S   tau( 400) = (   0.6534836   0.2425353   0.0509093  )
       401           S   tau( 401) = (   0.6526412   0.2433721   0.1547520  )
       402           Mo  tau( 402) = (   0.4999993   0.2886763   0.1019580  )
       403           S   tau( 403) = (   0.5605443   0.2913002   0.0501214  )
       404           S   tau( 404) = (   0.5602174   0.2914581   0.1539957  )
       405           Mo  tau( 405) = (   0.4068838   0.3367211   0.1022054  )
       406           S   tau( 406) = (   0.4674545   0.3397979   0.0501214  )
       407           S   tau( 407) = (   0.4674812   0.3394359   0.1539957  )
       408           Mo  tau( 408) = (   0.3133868   0.3842310   0.1025707  )
       409           S   tau( 409) = (   0.3741208   0.3876219   0.0505064  )
       410           S   tau( 410) = (   0.3741675   0.3870997   0.1543588  )
       411           Mo  tau( 411) = (   0.2196368   0.4314117   0.1025570  )
       412           S   tau( 412) = (   0.2805643   0.4347822   0.0507155  )
       413           S   tau( 413) = (   0.2803410   0.4344794   0.1545553  )
       414           Mo  tau( 414) = (   0.1259409   0.4786895   0.1020753  )
       415           S   tau( 415) = (   0.1869247   0.4817611   0.0504111  )
       416           S   tau( 416) = (   0.1864271   0.4818159   0.1542791  )
       417           Mo  tau( 417) = (   0.0325732   0.5264110   0.1015413  )
       418           S   tau( 418) = (   0.0933707   0.5291854   0.0498033  )
       419           S   tau( 419) = (   0.0929148   0.5293958   0.1537175  )
       420           Mo  tau( 420) = (  -0.0604034   0.5746119   0.1015413  )
       421           S   tau( 421) = (  -0.0000008   0.5773516   0.0494842  )
       422           S   tau( 422) = (  -0.0000007   0.5773515   0.1533997  )
       423           Mo  tau( 423) = (  -0.1531461   0.6229829   0.1024494  )
       424           S   tau( 424) = (  -0.0932013   0.6260550   0.0499280  )
       425           S   tau( 425) = (  -0.0924977   0.6255763   0.1538426  )
       426           Mo  tau( 426) = (  -0.2459560   0.6710635   0.1042342  )
       427           S   tau( 427) = (  -0.1863435   0.6747183   0.0513669  )
       428           S   tau( 428) = (  -0.1850022   0.6737410   0.1552172  )
       429           Mo  tau( 429) = (  -0.3391131   0.7185075   0.1064083  )
       430           S   tau( 430) = (  -0.2795816   0.7227263   0.0534936  )
       431           S   tau( 431) = (  -0.2779789   0.7214703   0.1572873  )
       432           Mo  tau( 432) = (  -0.4327444   0.7652908   0.1082096  )
       433           S   tau( 433) = (  -0.3729600   0.7697833   0.0556295  )
       434           S   tau( 434) = (  -0.3717072   0.7686360   0.1593622  )
       435           S   tau( 435) = (  -0.4664648   0.8160393   0.0569760  )
       436           S   tau( 436) = (  -0.4661197   0.8153791   0.1606933  )
       437           Mo  tau( 437) = (   0.8661236   0.2017934   0.1059646  )
       438           Mo  tau( 438) = (   0.7731355   0.2491665   0.1041539  )
       439           S   tau( 439) = (   0.8336382   0.2516910   0.0528412  )
       440           S   tau( 440) = (   0.8328611   0.2534881   0.1566333  )
       441           Mo  tau( 441) = (   0.6805825   0.2971099   0.1027836  )
       442           S   tau( 442) = (   0.7410487   0.2996868   0.0513408  )
       443           S   tau( 443) = (   0.7403258   0.3008180   0.1551608  )
       444           Mo  tau( 444) = (   0.5881651   0.3452943   0.1022054  )
       445           S   tau( 445) = (   0.6486279   0.3482175   0.0505064  )
       446           S   tau( 446) = (   0.6481524   0.3484382   0.1543588  )
       447           Mo  tau( 447) = (   0.4955183   0.3932915   0.1023450  )
       448           S   tau( 448) = (   0.5560855   0.3967122   0.0504527  )
       449           S   tau( 449) = (   0.5558159   0.3960793   0.1543136  )
       450           Mo  tau( 450) = (   0.4024040   0.4408492   0.1027836  )
       451           S   tau( 451) = (   0.4632165   0.4446682   0.0509093  )
       452           S   tau( 452) = (   0.4629129   0.4435202   0.1547520  )
       453           Mo  tau( 453) = (   0.3088200   0.4880384   0.1029719  )
       454           S   tau( 454) = (   0.3699393   0.4919260   0.0513408  )
       455           S   tau( 455) = (   0.3693211   0.4907343   0.1551608  )
       456           Mo  tau( 456) = (   0.2150069   0.5352238   0.1026129  )
       457           S   tau( 457) = (   0.2763421   0.5387938   0.0512536  )
       458           S   tau( 458) = (   0.2753219   0.5379208   0.1550815  )
       459           Mo  tau( 459) = (   0.1212816   0.5828274   0.1019401  )
       460           S   tau( 460) = (   0.1825756   0.5858885   0.0506187  )
       461           S   tau( 461) = (   0.1814297   0.5853812   0.1544912  )
       462           Mo  tau( 462) = (   0.0278281   0.6310315   0.1015413  )
       463           S   tau( 463) = (   0.0887781   0.6337139   0.0499280  )
       464           S   tau( 464) = (   0.0880118   0.6333438   0.1538426  )
       465           Mo  tau( 465) = (  -0.0653842   0.6796471   0.1019401  )
       466           S   tau( 466) = (  -0.0049733   0.6822965   0.0498033  )
       467           S   tau( 467) = (  -0.0049276   0.6817965   0.1537175  )
       468           Mo  tau( 468) = (  -0.1585423   0.7282061   0.1033263  )
       469           S   tau( 469) = (  -0.0986822   0.7311987   0.0506187  )
       470           S   tau( 470) = (  -0.0976698   0.7304599   0.1544912  )
       471           Mo  tau( 471) = (  -0.2518877   0.7762161   0.1054247  )
       472           S   tau( 472) = (  -0.1924047   0.7797221   0.0523598  )
       473           S   tau( 473) = (  -0.1906522   0.7788910   0.1561725  )
       474           Mo  tau( 474) = (  -0.3455690   0.8234477   0.1075562  )
       475           S   tau( 475) = (  -0.2861450   0.8273609   0.0544934  )
       476           S   tau( 476) = (  -0.2842051   0.8267332   0.1582550  )
       477           Mo  tau( 477) = (   0.7682415   0.3545615   0.1029719  )
       478           Mo  tau( 478) = (   0.6760583   0.4025102   0.1025707  )
       479           S   tau( 479) = (   0.7362482   0.4056597   0.0507155  )
       480           S   tau( 480) = (   0.7360975   0.4060045   0.1545553  )
       481           Mo  tau( 481) = (   0.5837562   0.4503826   0.1028912  )
       482           S   tau( 482) = (   0.6440607   0.4540938   0.0509240  )
       483           S   tau( 483) = (   0.6439969   0.4534044   0.1547599  )
       484           Mo  tau( 484) = (   0.4909955   0.4978812   0.1036066  )
       485           S   tau( 485) = (   0.5515729   0.5020888   0.0516971  )
       486           S   tau( 486) = (   0.5514007   0.5006307   0.1555165  )
       487           Mo  tau( 487) = (   0.3976478   0.5449741   0.1041539  )
       488           S   tau( 488) = (   0.4586153   0.5493810   0.0525326  )
       489           S   tau( 489) = (   0.4580393   0.5476187   0.1563307  )
       490           Mo  tau( 490) = (   0.3038537   0.5919407   0.1040615  )
       491           S   tau( 491) = (   0.3652101   0.5961087   0.0528412  )
       492           S   tau( 492) = (   0.3640423   0.5945372   0.1566333  )
       493           Mo  tau( 493) = (   0.2099140   0.6392252   0.1033263  )
       494           S   tau( 494) = (   0.2714594   0.6427928   0.0523598  )
       495           S   tau( 495) = (   0.2698634   0.6416908   0.1561725  )
       496           Mo  tau( 496) = (   0.1160899   0.6871636   0.1024494  )
       497           S   tau( 497) = (   0.1774928   0.6900457   0.0513669  )
       498           S   tau( 498) = (   0.1759758   0.6893727   0.1552172  )
       499           Mo  tau( 499) = (   0.0224723   0.7357510   0.1020753  )
       500           S   tau( 500) = (   0.0834248   0.7381938   0.0505213  )
       501           S   tau( 501) = (   0.0825715   0.7377192   0.1544000  )
       502           Mo  tau( 502) = (  -0.0710208   0.7846173   0.1026129  )
       503           S   tau( 503) = (  -0.0106797   0.7870288   0.0504111  )
       504           S   tau( 504) = (  -0.0104784   0.7865705   0.1542791  )
       505           Mo  tau( 505) = (  -0.1645626   0.8332025   0.1040615  )
       506           S   tau( 506) = (  -0.1047802   0.8359502   0.0512536  )
       507           S   tau( 507) = (  -0.1035140   0.8355032   0.1550815  )
       508           Mo  tau( 508) = (   0.6715974   0.5079638   0.1032606  )
       509           Mo  tau( 509) = (   0.5790381   0.5554498   0.1044488  )
       510           S   tau( 510) = (   0.6391715   0.5598159   0.0522315  )
       511           S   tau( 511) = (   0.6395731   0.5583698   0.1560403  )
       512           Mo  tau( 512) = (   0.4858878   0.6024598   0.1055529  )
       513           S   tau( 513) = (   0.5464006   0.6071789   0.0536333  )
       514           S   tau( 514) = (   0.5463956   0.6052716   0.1574152  )
       515           Mo  tau( 515) = (   0.3921800   0.6491907   0.1059646  )
       516           S   tau( 516) = (   0.4531859   0.6538239   0.0545484  )
       517           S   tau( 517) = (   0.4524455   0.6519812   0.1583055  )
       518           Mo  tau( 518) = (   0.2981646   0.6960597   0.1054247  )
       519           S   tau( 519) = (   0.3595860   0.7001550   0.0544934  )
       520           S   tau( 520) = (   0.3580724   0.6987888   0.1582550  )
       521           Mo  tau( 521) = (   0.2041340   0.7434991   0.1042342  )
       522           S   tau( 522) = (   0.2656880   0.7467882   0.0534936  )
       523           S   tau( 523) = (   0.2637990   0.7460283   0.1572873  )
       524           Mo  tau( 524) = (   0.1102632   0.7917156   0.1030693  )
       525           S   tau( 525) = (   0.1715858   0.7942447   0.0520876  )
       526           S   tau( 526) = (   0.1699867   0.7939422   0.1559089  )
       527           Mo  tau( 527) = (   0.0165681   0.8405330   0.1025570  )
       528           S   tau( 528) = (   0.0773970   0.8426499   0.0509901  )
       529           S   tau( 529) = (   0.0766492   0.8425529   0.1548301  )
       530           Mo  tau( 530) = (   0.5735637   0.6604263   0.1064677  )
       531           Mo  tau( 531) = (   0.4799253   0.7070540   0.1075860  )
       532           S   tau( 532) = (   0.5403233   0.7118159   0.0556614  )
       533           S   tau( 533) = (   0.5405190   0.7101774   0.1593917  )
       534           Mo  tau( 534) = (   0.3859091   0.7535743   0.1075562  )
       535           S   tau( 535) = (   0.4468476   0.7579769   0.0562898  )
       536           S   tau( 536) = (   0.4460623   0.7567997   0.1600104  )
       537           Mo  tau( 537) = (   0.2918002   0.8004534   0.1064083  )
       538           S   tau( 538) = (   0.3531298   0.8041277   0.0556295  )
       539           S   tau( 539) = (   0.3515098   0.8036164   0.1593622  )
       540           Mo  tau( 540) = (   0.1978378   0.8480567   0.1047229  )
       541           S   tau( 541) = (   0.2592288   0.8508746   0.0540266  )
       542           S   tau( 542) = (   0.2573424   0.8509494   0.1578042  )
       543           Mo  tau( 543) = (   0.4732523   0.8116894   0.1089058  )
       544           Mo  tau( 544) = (   0.3791314   0.8581489   0.1082096  )
       545           S   tau( 545) = (   0.4399411   0.8619773   0.0569760  )
       546           S   tau( 546) = (   0.4391968   0.8620086   0.1606933  )

   Crystallographic axes

     site n.     atom                  positions (cryst. coord.)
         1           Mo  tau(   1) = (  0.0046246  0.0627446 -0.1641581  )
         2           S   tau(   2) = (  0.0631223  0.0584841 -0.2422175  )
         3           S   tau(   3) = (  0.0623961  0.0577218 -0.0858819  )
         4           S   tau(   4) = (  0.0091251  0.1261257 -0.2411883  )
         5           S   tau(   5) = (  0.0092308  0.1247666 -0.0848477  )
         6           Mo  tau(   6) = (  0.1790146  0.0491672 -0.1621232  )
         7           S   tau(   7) = (  0.2384818  0.0453736 -0.2385420  )
         8           S   tau(   8) = (  0.2361792  0.0446487 -0.0821397  )
         9           Mo  tau(   9) = (  0.1254161  0.1163211 -0.1631083  )
        10           S   tau(  10) = (  0.1845220  0.1124584 -0.2402113  )
        11           S   tau(  11) = (  0.1826068  0.1111336 -0.0838524  )
        12           Mo  tau(  12) = (  0.0717089  0.1835671 -0.1621687  )
        13           S   tau(  13) = (  0.1304993  0.1799606 -0.2402558  )
        14           S   tau(  14) = (  0.1293576  0.1780687 -0.0839006  )
        15           Mo  tau(  15) = (  0.0173710  0.2503819 -0.1597232  )
        16           S   tau(  16) = (  0.0760254  0.2471598 -0.2386182  )
        17           S   tau(  17) = (  0.0757018  0.2450318 -0.0822226  )
        18           S   tau(  18) = (  0.0207876  0.3134906 -0.2360965  )
        19           S   tau(  19) = (  0.0210479  0.3116755 -0.0796483  )
        20           Mo  tau(  20) = (  0.3543891  0.0379034 -0.1568541  )
        21           S   tau(  21) = (  0.4141093  0.0352467 -0.2337578  )
        22           S   tau(  22) = (  0.4125853  0.0347307 -0.0772553  )
        23           Mo  tau(  23) = (  0.2999651  0.1037057 -0.1589090  )
        24           S   tau(  24) = (  0.3596563  0.1006169 -0.2354020  )
        25           S   tau(  25) = (  0.3574239  0.0996573 -0.0789228  )
        26           Mo  tau(  26) = (  0.2460578  0.1703419 -0.1603923  )
        27           S   tau(  27) = (  0.3054816  0.1669208 -0.2370828  )
        28           S   tau(  28) = (  0.3031534  0.1654703 -0.0806322  )
        29           Mo  tau(  29) = (  0.1922679  0.2374082 -0.1604820  )
        30           S   tau(  30) = (  0.2513619  0.2339536 -0.2378624  )
        31           S   tau(  31) = (  0.2495184  0.2320237 -0.0814361  )
        32           Mo  tau(  32) = (  0.1380590  0.3043421 -0.1591027  )
        33           S   tau(  33) = (  0.1969435  0.3010956 -0.2372756  )
        34           S   tau(  34) = (  0.1958469  0.2988927 -0.0808426  )
        35           Mo  tau(  35) = (  0.0830083  0.3707209 -0.1569936  )
        36           S   tau(  36) = (  0.1418728  0.3676673 -0.2356402  )
        37           S   tau(  37) = (  0.1414314  0.3656321 -0.0791829  )
        38           Mo  tau(  38) = (  0.0270524  0.4364647 -0.1552119  )
        39           S   tau(  39) = (  0.0859969  0.4333514 -0.2338771  )
        40           S   tau(  40) = (  0.0859271  0.4319757 -0.0773866  )
        41           S   tau(  41) = (  0.0294957  0.4983092 -0.2329649  )
        42           S   tau(  42) = (  0.0295441  0.4979596 -0.0764443  )
        43           Mo  tau(  43) = (  0.5312875  0.0294388 -0.1545858  )
        44           S   tau(  44) = (  0.5902025  0.0271065 -0.2333791  )
        45           S   tau(  45) = (  0.5908942  0.0269946 -0.0768584  )
        46           Mo  tau(  46) = (  0.4759816  0.0940047 -0.1546703  )
        47           S   tau(  47) = (  0.5353963  0.0917494 -0.2325489  )
        48           S   tau(  48) = (  0.5349304  0.0912202 -0.0759857  )
        49           Mo  tau(  49) = (  0.4210291  0.1591427 -0.1557461  )
        50           S   tau(  50) = (  0.4806003  0.1565403 -0.2328683  )
        51           S   tau(  51) = (  0.4791616  0.1556873 -0.0762984  )
        52           Mo  tau(  52) = (  0.3666066  0.2251254 -0.1571141  )
        53           S   tau(  53) = (  0.4260146  0.2220337 -0.2339622  )
        54           S   tau(  54) = (  0.4241092  0.2209053 -0.0774261  )
        55           Mo  tau(  55) = (  0.3125364  0.2917880 -0.1578506  )
        56           S   tau(  56) = (  0.3716306  0.2883960 -0.2350048  )
        57           S   tau(  57) = (  0.3698568  0.2869717 -0.0785124  )
        58           Mo  tau(  58) = (  0.2583504  0.3586246 -0.1574382  )
        59           S   tau(  59) = (  0.3171995  0.3552529 -0.2352028  )
        60           S   tau(  60) = (  0.3159631  0.3535830 -0.0787294  )
        61           Mo  tau(  61) = (  0.2035450  0.4250991 -0.1561690  )
        62           S   tau(  62) = (  0.2623627  0.4219241 -0.2344131  )
        63           S   tau(  63) = (  0.2616933  0.4202406 -0.0779236  )
        64           Mo  tau(  64) = (  0.1478811  0.4909541 -0.1549282  )
        65           S   tau(  65) = (  0.2068477  0.4878696 -0.2332612  )
        66           S   tau(  66) = (  0.2064887  0.4865444 -0.0767365  )
        67           Mo  tau(  67) = (  0.0915523  0.5563311 -0.1546074  )
        68           S   tau(  68) = (  0.1506767  0.5530185 -0.2326689  )
        69           S   tau(  69) = (  0.1503287  0.5524157 -0.0761294  )
        70           Mo  tau(  70) = (  0.0351297  0.6216758 -0.1556464  )
        71           S   tau(  71) = (  0.0942300  0.6177763 -0.2332732  )
        72           S   tau(  72) = (  0.0937681  0.6181104 -0.0767586  )
        73           S   tau(  73) = (  0.0380520  0.6828019 -0.2352028  )
        74           S   tau(  74) = (  0.0376184  0.6840383 -0.0787294  )
        75           Mo  tau(  75) = (  0.7082134  0.0207512 -0.1578506  )
        76           S   tau(  76) = (  0.7660478  0.0174110 -0.2378624  )
        77           S   tau(  77) = (  0.7679777  0.0174975 -0.0814361  )
        78           Mo  tau(  78) = (  0.6531674  0.0858084 -0.1553584  )
        79           S   tau(  79) = (  0.7116054  0.0832373 -0.2350048  )
        80           S   tau(  80) = (  0.7130297  0.0828879 -0.0785124  )
        81           Mo  tau(  81) = (  0.5976876  0.1504307 -0.1538601  )
        82           S   tau(  82) = (  0.6566506  0.1481580 -0.2327308  )
        83           S   tau(  83) = (  0.6572298  0.1476100 -0.0761517  )
        84           Mo  tau(  84) = (  0.5422228  0.2152140 -0.1536568  )
        85           S   tau(  85) = (  0.6014384  0.2127320 -0.2317023  )
        86           S   tau(  86) = (  0.6011040  0.2121546 -0.0750695  )
        87           Mo  tau(  87) = (  0.4871759  0.2806441 -0.1544247  )
        88           S   tau(  88) = (  0.5463270  0.2776495 -0.2318908  )
        89           S   tau(  89) = (  0.5453471  0.2770968 -0.0752574  )
        90           Mo  tau(  90) = (  0.4326397  0.3468340 -0.1553584  )
        91           S   tau(  91) = (  0.4915060  0.3433508 -0.2327308  )
        92           S   tau(  92) = (  0.4903789  0.3427716 -0.0761517  )
        93           Mo  tau(  93) = (  0.3783256  0.4134567 -0.1556464  )
        94           S   tau(  94) = (  0.4369026  0.4097989 -0.2333791  )
        95           S   tau(  95) = (  0.4360989  0.4091072 -0.0768584  )
        96           Mo  tau(  96) = (  0.3237291  0.4799457 -0.1550903  )
        97           S   tau(  97) = (  0.3822251  0.4764565 -0.2332732  )
        98           S   tau(  98) = (  0.3818910  0.4756604 -0.0767586  )
        99           Mo  tau(  99) = (  0.2684528  0.5458689 -0.1542669  )
       100           S   tau( 100) = (  0.3271408  0.5426498 -0.2326008  )
       101           S   tau( 101) = (  0.3270449  0.5419191 -0.0760486  )
       102           Mo  tau( 102) = (  0.2124792  0.6111906 -0.1540567  )
       103           S   tau( 103) = (  0.2715092  0.6080560 -0.2321218  )
       104           S   tau( 104) = (  0.2712735  0.6076380 -0.0755493  )
       105           Mo  tau( 105) = (  0.1562152  0.6762723 -0.1550903  )
       106           S   tau( 106) = (  0.2155076  0.6728606 -0.2326008  )
       107           S   tau( 107) = (  0.2148728  0.6729565 -0.0760486  )
       108           Mo  tau( 108) = (  0.1002728  0.7416510 -0.1574382  )
       109           S   tau( 109) = (  0.1595600  0.7376387 -0.2344131  )
       110           S   tau( 110) = (  0.1585460  0.7383081 -0.0779236  )
       111           Mo  tau( 111) = (  0.0451390  0.8077335 -0.1604820  )
       112           S   tau( 112) = (  0.1041508  0.8030579 -0.2372756  )
       113           S   tau( 113) = (  0.1030445  0.8041545 -0.0808426  )
       114           S   tau( 114) = (  0.0494599  0.8695021 -0.2402558  )
       115           S   tau( 115) = (  0.0487096  0.8706438 -0.0839005  )
       116           Mo  tau( 116) = (  0.8836803  0.0090979 -0.1631083  )
       117           S   tau( 117) = (  0.9415173  0.0046410 -0.2422175  )
       118           S   tau( 118) = (  0.9422796  0.0046771 -0.0858819  )
       119           Mo  tau( 119) = (  0.8296595  0.0757187 -0.1603923  )
       120           S   tau( 120) = (  0.8875430  0.0720664 -0.2402113  )
       121           S   tau( 121) = (  0.8888678  0.0714761 -0.0838524  )
       122           Mo  tau( 122) = (  0.7748760  0.1414840 -0.1571141  )
       123           S   tau( 123) = (  0.8330806  0.1385636 -0.2370828  )
       124           S   tau( 124) = (  0.8345311  0.1376859 -0.0806322  )
       125           Mo  tau( 125) = (  0.7193573  0.2065346 -0.1544247  )
       126           S   tau( 126) = (  0.7779677  0.2039837 -0.2339622  )
       127           S   tau( 127) = (  0.7790961  0.2032067 -0.0774261  )
       128           Mo  tau( 128) = (  0.6635032  0.2713503 -0.1530554  )
       129           S   tau( 129) = (  0.7223519  0.2686803 -0.2318908  )
       130           S   tau( 130) = (  0.7229046  0.2682531 -0.0752574  )
       131           Mo  tau( 131) = (  0.6078457  0.3364982 -0.1530554  )
       132           S   tau( 132) = (  0.6666667  0.3333347 -0.2312233  )
       133           S   tau( 133) = (  0.6666667  0.3333348 -0.0745884  )
       134           Mo  tau( 134) = (  0.5527417  0.4023138 -0.1538601  )
       135           S   tau( 135) = (  0.6112922  0.3985630 -0.2317023  )
       136           S   tau( 136) = (  0.6110492  0.3988974 -0.0750695  )
       137           Mo  tau( 137) = (  0.4981499  0.4687139 -0.1545858  )
       138           S   tau( 138) = (  0.5563517  0.4646050 -0.2325489  )
       139           S   tau( 139) = (  0.5562884  0.4650710 -0.0759857  )
       140           Mo  tau( 140) = (  0.4436703  0.5352240 -0.1546074  )
       141           S   tau( 141) = (  0.5016922  0.5311893 -0.2329649  )
       142           S   tau( 142) = (  0.5020418  0.5315873 -0.0764444  )
       143           Mo  tau( 143) = (  0.3888108  0.6012913 -0.1540567  )
       144           S   tau( 144) = (  0.4469829  0.5976610 -0.2326689  )
       145           S   tau( 145) = (  0.4475857  0.5979158 -0.0761294  )
       146           Mo  tau( 146) = (  0.3333333  0.6666681 -0.1536840  )
       147           S   tau( 147) = (  0.3919454  0.6634560 -0.2321218  )
       148           S   tau( 148) = (  0.3923634  0.6636382 -0.0755493  )
       149           Mo  tau( 149) = (  0.2774147  0.7315486 -0.1542669  )
       150           S   tau( 150) = (  0.3365454  0.7284922 -0.2321218  )
       151           S   tau( 151) = (  0.3363632  0.7287279 -0.0755493  )
       152           Mo  tau( 152) = (  0.2215527  0.7964564 -0.1561690  )
       153           S   tau( 153) = (  0.2810205  0.7931537 -0.2332612  )
       154           S   tau( 154) = (  0.2800543  0.7935127 -0.0767365  )
       155           Mo  tau( 155) = (  0.1662817  0.8619424 -0.1591027  )
       156           S   tau( 156) = (  0.2257931  0.8581286 -0.2356402  )
       157           S   tau( 157) = (  0.2241993  0.8585700 -0.0791829  )
       158           Mo  tau( 158) = (  0.1118569  0.9282925 -0.1621687  )
       159           S   tau( 159) = (  0.1711330  0.9239760 -0.2386182  )
       160           S   tau( 160) = (  0.1693286  0.9242996 -0.0822226  )
       161           Mo  tau( 161) = (  0.0581186  0.9953768 -0.1641581  )
       162           S   tau( 162) = (  0.1169992  0.9908763 -0.2411883  )
       163           S   tau( 163) = (  0.1155344  0.9907706 -0.0848477  )
       164           Mo  tau( 164) = (  0.9508341  0.1298502 -0.1621232  )
       165           Mo  tau( 165) = (  0.8962957  0.1962622 -0.1589090  )
       166           S   tau( 166) = (  0.9546278  0.1931110 -0.2385420  )
       167           S   tau( 167) = (  0.9553527  0.1915333 -0.0821397  )
       168           Mo  tau( 168) = (  0.8408587  0.2618891 -0.1557461  )
       169           S   tau( 169) = (  0.8993845  0.2590422 -0.2354020  )
       170           S   tau( 170) = (  0.9003441  0.2577694 -0.0789228  )
       171           Mo  tau( 171) = (  0.7847874  0.3270116 -0.1536568  )
       172           S   tau( 172) = (  0.8434611  0.3240627 -0.2328683  )
       173           S   tau( 173) = (  0.8443141  0.3234771 -0.0762984  )
       174           Mo  tau( 174) = (  0.7286511  0.3921557 -0.1530554  )
       175           S   tau( 175) = (  0.7872694  0.3887092 -0.2317023  )
       176           S   tau( 176) = (  0.7878468  0.3889522 -0.0750695  )
       177           Mo  tau( 177) = (  0.6729898  0.4577786 -0.1536568  )
       178           S   tau( 178) = (  0.7313211  0.4536744 -0.2318908  )
       179           S   tau( 179) = (  0.7317483  0.4546543 -0.0752574  )
       180           Mo  tau( 180) = (  0.6180218  0.5240198 -0.1546703  )
       181           S   tau( 181) = (  0.6759387  0.5194012 -0.2328683  )
       182           S   tau( 182) = (  0.6765243  0.5208398 -0.0762984  )
       183           Mo  tau( 183) = (  0.5635367  0.5905905 -0.1552119  )
       184           S   tau( 184) = (  0.6211360  0.5858922 -0.2337578  )
       185           S   tau( 185) = (  0.6221440  0.5874161 -0.0772553  )
       186           Mo  tau( 186) = (  0.5090473  0.6569298 -0.1549282  )
       187           S   tau( 187) = (  0.5666500  0.6526483 -0.2338771  )
       188           S   tau( 188) = (  0.5680257  0.6539542 -0.0773866  )
       189           Mo  tau( 189) = (  0.4541325  0.7225867 -0.1542669  )
       190           S   tau( 190) = (  0.5121318  0.7189809 -0.2332612  )
       191           S   tau( 191) = (  0.5134570  0.7199471 -0.0767365  )
       192           Mo  tau( 192) = (  0.3987100  0.7875222 -0.1540567  )
       193           S   tau( 193) = (  0.4573516  0.7844938 -0.2326008  )
       194           S   tau( 194) = (  0.4580823  0.7851287 -0.0760486  )
       195           Mo  tau( 195) = (  0.3430716  0.8521203 -0.1549282  )
       196           S   tau( 196) = (  0.4023404  0.8493247 -0.2326689  )
       197           S   tau( 197) = (  0.4020856  0.8496727 -0.0761294  )
       198           Mo  tau( 198) = (  0.2877113  0.9169931 -0.1569936  )
       199           S   tau( 199) = (  0.3473532  0.9140045 -0.2338771  )
       200           S   tau( 200) = (  0.3460472  0.9140743 -0.0773866  )
       201           Mo  tau( 201) = (  0.2330095  0.9826304 -0.1597232  )
       202           S   tau( 202) = (  0.2927016  0.9792138 -0.2360965  )
       203           S   tau( 203) = (  0.2906262  0.9789535 -0.0796483  )
       204           Mo  tau( 204) = (  0.9620980  0.3164885 -0.1568541  )
       205           Mo  tau( 205) = (  0.9059967  0.3819796 -0.1546703  )
       206           S   tau( 206) = (  0.9647547  0.3788653 -0.2337578  )
       207           S   tau( 207) = (  0.9652707  0.3778574 -0.0772553  )
       208           Mo  tau( 208) = (  0.8495707  0.4472597 -0.1538601  )
       209           S   tau( 209) = (  0.9082520  0.4436497 -0.2325489  )
       210           S   tau( 210) = (  0.9087812  0.4437130 -0.0759857  )
       211           Mo  tau( 211) = (  0.7934668  0.5128255 -0.1544247  )
       212           S   tau( 212) = (  0.8518434  0.5084954 -0.2327308  )
       213           S   tau( 213) = (  0.8523914  0.5096225 -0.0761517  )
       214           Mo  tau( 214) = (  0.7381123  0.5789723 -0.1557461  )
       215           S   tau( 215) = (  0.7960177  0.5739868 -0.2339622  )
       216           S   tau( 216) = (  0.7967947  0.5758921 -0.0774261  )
       217           Mo  tau( 217) = (  0.6835129  0.6456123 -0.1568541  )
       218           S   tau( 218) = (  0.7409592  0.6403451 -0.2354020  )
       219           S   tau( 219) = (  0.7422320  0.6425775 -0.0789228  )
       220           Mo  tau( 220) = (  0.6292805  0.7122901 -0.1569936  )
       221           S   tau( 221) = (  0.6865108  0.7072998 -0.2360965  )
       222           S   tau( 222) = (  0.6883259  0.7093752 -0.0796483  )
       223           Mo  tau( 223) = (  0.5749023  0.7784487 -0.1561690  )
       224           S   tau( 224) = (  0.6323341  0.7742083 -0.2356402  )
       225           S   tau( 225) = (  0.6343693  0.7758021 -0.0791829  )
       226           Mo  tau( 226) = (  0.5200557  0.8437862 -0.1550903  )
       227           S   tau( 227) = (  0.5780773  0.8404414 -0.2344131  )
       228           S   tau( 228) = (  0.5797607  0.8414554 -0.0779236  )
       229           Mo  tau( 229) = (  0.4647774  0.9084491 -0.1546074  )
       230           S   tau( 230) = (  0.5235449  0.9057714 -0.2332732  )
       231           S   tau( 231) = (  0.5243410  0.9062333 -0.0767586  )
       232           Mo  tau( 232) = (  0.4094109  0.9729490 -0.1552119  )
       233           S   tau( 233) = (  0.4688121  0.9705057 -0.2329649  )
       234           S   tau( 234) = (  0.4684141  0.9704573 -0.0764444  )
       235           Mo  tau( 235) = (  0.9705626  0.5018515 -0.1545858  )
       236           Mo  tau( 236) = (  0.9141930  0.5673617 -0.1553584  )
       237           S   tau( 237) = (  0.9728948  0.5630988 -0.2333791  )
       238           S   tau( 238) = (  0.9730069  0.5639025 -0.0768584  )
       239           Mo  tau( 239) = (  0.8585174  0.6333948 -0.1571141  )
       240           S   tau( 240) = (  0.9167640  0.6283708 -0.2350048  )
       241           S   tau( 241) = (  0.9171135  0.6301445 -0.0785124  )
       242           Mo  tau( 242) = (  0.8037392  0.7000363 -0.1589090  )
       243           S   tau( 243) = (  0.8614378  0.6945198 -0.2370828  )
       244           S   tau( 244) = (  0.8623155  0.6968480 -0.0806322  )
       245           Mo  tau( 245) = (  0.7496195  0.7669919 -0.1597232  )
       246           S   tau( 246) = (  0.8068904  0.7615196 -0.2385420  )
       247           S   tau( 247) = (  0.8084680  0.7638222 -0.0821397  )
       248           Mo  tau( 248) = (  0.6956593  0.8337197 -0.1591027  )
       249           S   tau( 249) = (  0.7528416  0.8288684 -0.2386182  )
       250           S   tau( 250) = (  0.7549696  0.8306728 -0.0822226  )
       251           Mo  tau( 251) = (  0.6413768  0.8997286 -0.1574382  )
       252           S   tau( 252) = (  0.6989058  0.8958506 -0.2372756  )
       253           S   tau( 253) = (  0.7011087  0.8969569 -0.0808426  )
       254           Mo  tau( 254) = (  0.5865447  0.9648717 -0.1556464  )
       255           S   tau( 255) = (  0.6447485  0.9619493 -0.2352028  )
       256           S   tau( 256) = (  0.6464184  0.9623830 -0.0787294  )
       257           Mo  tau( 257) = (  0.9792502  0.6874650 -0.1578506  )
       258           Mo  tau( 258) = (  0.9242827  0.7539436 -0.1603923  )
       259           S   tau( 259) = (  0.9825904  0.7486395 -0.2378624  )
       260           S   tau( 260) = (  0.9825039  0.7504830 -0.0814361  )
       261           Mo  tau( 261) = (  0.8701512  0.8209868 -0.1621232  )
       262           S   tau( 262) = (  0.9279350  0.8154794 -0.2402113  )
       263           S   tau( 263) = (  0.9285253  0.8173945 -0.0838524  )
       264           Mo  tau( 264) = (  0.8164343  0.8881445 -0.1621687  )
       265           S   tau( 265) = (  0.8738757  0.8830022 -0.2411883  )
       266           S   tau( 266) = (  0.8752348  0.8844670 -0.0848477  )
       267           Mo  tau( 267) = (  0.7625932  0.9548624 -0.1604820  )
       268           S   tau( 268) = (  0.8200408  0.9505415 -0.2402558  )
       269           S   tau( 269) = (  0.8219327  0.9512918 -0.0839006  )
       270           Mo  tau( 270) = (  0.9909035  0.8745853 -0.1631083  )
       271           Mo  tau( 271) = (  0.9372568  0.9418828 -0.1641581  )
       272           S   tau( 272) = (  0.9953604  0.9368791 -0.2422175  )
       273           S   tau( 273) = (  0.9953243  0.9376053 -0.0858819  )
       274           Mo  tau( 274) = (  0.0627433  0.0046260  0.1641563  )
       275           S   tau( 275) = (  0.1247651  0.0092322  0.0848469  )
       276           S   tau( 276) = (  0.1261244  0.0091265  0.2411875  )
       277           S   tau( 277) = (  0.0577203  0.0623975  0.0858813  )
       278           S   tau( 278) = (  0.0584827  0.0631237  0.2422169  )
       279           Mo  tau( 279) = (  0.2503805  0.0173723  0.1597230  )
       280           S   tau( 280) = (  0.3116743  0.0210494  0.0796488  )
       281           S   tau( 281) = (  0.3134889  0.0207889  0.2360971  )
       282           Mo  tau( 282) = (  0.1835658  0.0717103  0.1621670  )
       283           S   tau( 283) = (  0.2450305  0.0757033  0.0822221  )
       284           S   tau( 284) = (  0.2471583  0.0760268  0.2386177  )
       285           Mo  tau( 285) = (  0.1163197  0.1254175  0.1631070  )
       286           S   tau( 286) = (  0.1780672  0.1293590  0.0838997  )
       287           S   tau( 287) = (  0.1799592  0.1305007  0.2402549  )
       288           Mo  tau( 288) = (  0.0491659  0.1790160  0.1621220  )
       289           S   tau( 289) = (  0.1111322  0.1826082  0.0838516  )
       290           S   tau( 290) = (  0.1124569  0.1845234  0.2402104  )
       291           S   tau( 291) = (  0.0446473  0.2361807  0.0821392  )
       292           S   tau( 292) = (  0.0453721  0.2384831  0.2385416  )
       293           Mo  tau( 293) = (  0.4364632  0.0270537  0.1552121  )
       294           S   tau( 294) = (  0.4979581  0.0295455  0.0764447  )
       295           S   tau( 295) = (  0.4983079  0.0294970  0.2329650  )
       296           Mo  tau( 296) = (  0.3707195  0.0830096  0.1569937  )
       297           S   tau( 297) = (  0.4319741  0.0859285  0.0773873  )
       298           S   tau( 298) = (  0.4333502  0.0859983  0.2338777  )
       299           Mo  tau( 299) = (  0.3043407  0.1380603  0.1591025  )
       300           S   tau( 300) = (  0.3656308  0.1414328  0.0791836  )
       301           S   tau( 301) = (  0.3676657  0.1418742  0.2356411  )
       302           Mo  tau( 302) = (  0.2374068  0.1922692  0.1604813  )
       303           S   tau( 303) = (  0.2988916  0.1958485  0.0808427  )
       304           S   tau( 304) = (  0.3010940  0.1969447  0.2372757  )
       305           Mo  tau( 305) = (  0.1703404  0.2460592  0.1603918  )
       306           S   tau( 306) = (  0.2320224  0.2495199  0.0814357  )
       307           S   tau( 307) = (  0.2339521  0.2513631  0.2378620  )
       308           Mo  tau( 308) = (  0.1037043  0.2999666  0.1589092  )
       309           S   tau( 309) = (  0.1654690  0.3031550  0.0806323  )
       310           S   tau( 310) = (  0.1669193  0.3054828  0.2370830  )
       311           Mo  tau( 311) = (  0.0379020  0.3543906  0.1568545  )
       312           S   tau( 312) = (  0.0996558  0.3574253  0.0789232  )
       313           S   tau( 313) = (  0.1006156  0.3596576  0.2354025  )
       314           S   tau( 314) = (  0.0347292  0.4125865  0.0772558  )
       315           S   tau( 315) = (  0.0352454  0.4141108  0.2337581  )
       316           Mo  tau( 316) = (  0.6216743  0.0351310  0.1556472  )
       317           S   tau( 317) = (  0.6840370  0.0376200  0.0787298  )
       318           S   tau( 318) = (  0.6828004  0.0380533  0.2352034  )
       319           Mo  tau( 319) = (  0.5563297  0.0915537  0.1546073  )
       320           S   tau( 320) = (  0.6181090  0.0937695  0.0767589  )
       321           S   tau( 321) = (  0.6177749  0.0942314  0.2332733  )
       322           Mo  tau( 322) = (  0.4909526  0.1478825  0.1549281  )
       323           S   tau( 323) = (  0.5524142  0.1503300  0.0761296  )
       324           S   tau( 324) = (  0.5530171  0.1506781  0.2326687  )
       325           Mo  tau( 325) = (  0.4250977  0.2035465  0.1561687  )
       326           S   tau( 326) = (  0.4865428  0.2064900  0.0767368  )
       327           S   tau( 327) = (  0.4878683  0.2068492  0.2332614  )
       328           Mo  tau( 328) = (  0.3586232  0.2583518  0.1574383  )
       329           S   tau( 329) = (  0.4202392  0.2616946  0.0779243  )
       330           S   tau( 330) = (  0.4219228  0.2623642  0.2344138  )
       331           Mo  tau( 331) = (  0.2917866  0.3125378  0.1578514  )
       332           S   tau( 332) = (  0.3535816  0.3159644  0.0787298  )
       333           S   tau( 333) = (  0.3552515  0.3172010  0.2352034  )
       334           Mo  tau( 334) = (  0.2251240  0.3666081  0.1571148  )
       335           S   tau( 335) = (  0.2869702  0.3698583  0.0785129  )
       336           S   tau( 336) = (  0.2883947  0.3716319  0.2350053  )
       337           Mo  tau( 337) = (  0.1591414  0.4210305  0.1557463  )
       338           S   tau( 338) = (  0.2209039  0.4241105  0.0774266  )
       339           S   tau( 339) = (  0.2220323  0.4260160  0.2339627  )
       340           Mo  tau( 340) = (  0.0940033  0.4759829  0.1546709  )
       341           S   tau( 341) = (  0.1556859  0.4791629  0.0762987  )
       342           S   tau( 342) = (  0.1565389  0.4806017  0.2328683  )
       343           Mo  tau( 343) = (  0.0294375  0.5312889  0.1545867  )
       344           S   tau( 344) = (  0.0912188  0.5349318  0.0759858  )
       345           S   tau( 345) = (  0.0917481  0.5353978  0.2325486  )
       346           S   tau( 346) = (  0.0269931  0.5908956  0.0768586  )
       347           S   tau( 347) = (  0.0271051  0.5902039  0.2333791  )
       348           Mo  tau( 348) = (  0.8077322  0.0451404  0.1604813  )
       349           S   tau( 349) = (  0.8706424  0.0487110  0.0838997  )
       350           S   tau( 350) = (  0.8695007  0.0494612  0.2402549  )
       351           Mo  tau( 351) = (  0.7416496  0.1002742  0.1574383  )
       352           S   tau( 352) = (  0.8041529  0.1030459  0.0808427  )
       353           S   tau( 353) = (  0.8030567  0.1041520  0.2372757  )
       354           Mo  tau( 354) = (  0.6762709  0.1562166  0.1550904  )
       355           S   tau( 355) = (  0.7383068  0.1585474  0.0779243  )
       356           S   tau( 356) = (  0.7376372  0.1595614  0.2344138  )
       357           Mo  tau( 357) = (  0.6111893  0.2124806  0.1540566  )
       358           S   tau( 358) = (  0.6729550  0.2148740  0.0760486  )
       359           S   tau( 359) = (  0.6728592  0.2155090  0.2326006  )
       360           Mo  tau( 360) = (  0.5458674  0.2684541  0.1542670  )
       361           S   tau( 361) = (  0.6076366  0.2712749  0.0755491  )
       362           S   tau( 362) = (  0.6080546  0.2715106  0.2321214  )
       363           Mo  tau( 363) = (  0.4799443  0.3237305  0.1550904  )
       364           S   tau( 364) = (  0.5419176  0.3270464  0.0760486  )
       365           S   tau( 365) = (  0.5426485  0.3271422  0.2326006  )
       366           Mo  tau( 366) = (  0.4134553  0.3783271  0.1556472  )
       367           S   tau( 367) = (  0.4756591  0.3818924  0.0767589  )
       368           S   tau( 368) = (  0.4764551  0.3822265  0.2332733  )
       369           Mo  tau( 369) = (  0.3468326  0.4326411  0.1553588  )
       370           S   tau( 370) = (  0.4091058  0.4361003  0.0768586  )
       371           S   tau( 371) = (  0.4097975  0.4369040  0.2333791  )
       372           Mo  tau( 372) = (  0.2806428  0.4871774  0.1544244  )
       373           S   tau( 373) = (  0.3427702  0.4903802  0.0761520  )
       374           S   tau( 374) = (  0.3433494  0.4915075  0.2327308  )
       375           Mo  tau( 375) = (  0.2152125  0.5422242  0.1536568  )
       376           S   tau( 376) = (  0.2770954  0.5453484  0.0752576  )
       377           S   tau( 377) = (  0.2776481  0.5463284  0.2318906  )
       378           Mo  tau( 378) = (  0.1504293  0.5976890  0.1538606  )
       379           S   tau( 379) = (  0.2121532  0.6011054  0.0750697  )
       380           S   tau( 380) = (  0.2127306  0.6014398  0.2317021  )
       381           Mo  tau( 381) = (  0.0858070  0.6531688  0.1553588  )
       382           S   tau( 382) = (  0.1476086  0.6572312  0.0761520  )
       383           S   tau( 383) = (  0.1481566  0.6566520  0.2327308  )
       384           Mo  tau( 384) = (  0.0207498  0.7082148  0.1578514  )
       385           S   tau( 385) = (  0.0828866  0.7130312  0.0785129  )
       386           S   tau( 386) = (  0.0832358  0.7116067  0.2350053  )
       387           S   tau( 387) = (  0.0174961  0.7679790  0.0814357  )
       388           S   tau( 388) = (  0.0174096  0.7660493  0.2378620  )
       389           Mo  tau( 389) = (  0.9953754  0.0581201  0.1641563  )
       390           Mo  tau( 390) = (  0.9282911  0.1118583  0.1621670  )
       391           S   tau( 391) = (  0.9907692  0.1155357  0.0848469  )
       392           S   tau( 392) = (  0.9908749  0.1170006  0.2411875  )
       393           Mo  tau( 393) = (  0.8619411  0.1662832  0.1591025  )
       394           S   tau( 394) = (  0.9242981  0.1693300  0.0822221  )
       395           S   tau( 395) = (  0.9239746  0.1711343  0.2386177  )
       396           Mo  tau( 396) = (  0.7964549  0.2215540  0.1561687  )
       397           S   tau( 397) = (  0.8585686  0.2242008  0.0791836  )
       398           S   tau( 398) = (  0.8581272  0.2257943  0.2356411  )
       399           Mo  tau( 399) = (  0.7315473  0.2774161  0.1542670  )
       400           S   tau( 400) = (  0.7935114  0.2800556  0.0767368  )
       401           S   tau( 401) = (  0.7931522  0.2810219  0.2332614  )
       402           Mo  tau( 402) = (  0.6666667  0.3333347  0.1536838  )
       403           S   tau( 403) = (  0.7287265  0.3363646  0.0755491  )
       404           S   tau( 404) = (  0.7284908  0.3365468  0.2321214  )
       405           Mo  tau( 405) = (  0.6012898  0.3888121  0.1540566  )
       406           S   tau( 406) = (  0.6636368  0.3923648  0.0755491  )
       407           S   tau( 407) = (  0.6634546  0.3919468  0.2321214  )
       408           Mo  tau( 408) = (  0.5352226  0.4436717  0.1546073  )
       409           S   tau( 409) = (  0.5979144  0.4475872  0.0761296  )
       410           S   tau( 410) = (  0.5976596  0.4469843  0.2326687  )
       411           Mo  tau( 411) = (  0.4687125  0.4981514  0.1545867  )
       412           S   tau( 412) = (  0.5315860  0.5020433  0.0764447  )
       413           S   tau( 413) = (  0.5311878  0.5016935  0.2329650  )
       414           Mo  tau( 414) = (  0.4023124  0.5527431  0.1538606  )
       415           S   tau( 415) = (  0.4650696  0.5562898  0.0759858  )
       416           S   tau( 416) = (  0.4646037  0.5563531  0.2325486  )
       417           Mo  tau( 417) = (  0.3364967  0.6078471  0.1530557  )
       418           S   tau( 418) = (  0.3988960  0.6110506  0.0750697  )
       419           S   tau( 419) = (  0.3985616  0.6112936  0.2317021  )
       420           Mo  tau( 420) = (  0.2713490  0.6635047  0.1530557  )
       421           S   tau( 421) = (  0.3333333  0.6666682  0.0745887  )
       422           S   tau( 422) = (  0.3333333  0.6666681  0.2312231  )
       423           Mo  tau( 423) = (  0.2065332  0.7193586  0.1544244  )
[...]
S             3.2352321723        6.5139823563        1.6272885430
S             3.2650172073        6.5614154517        4.7603877179
Mo           -1.3936904794        7.8318978949        3.1789851863
S             0.4204699125        7.9148898423        1.6111258198
S             0.4287671454        7.9752141838        4.7449422540
Mo           -4.1981246848        9.2528464434        3.1379690238
S            -2.3821360705        9.3319176522        1.5766772539
S            -2.3867613913        9.3901613725        4.7115056940
S            -5.1714902504       10.7714479107        1.5428844209
S            -5.1789654394       10.8121531578        4.6780297917
Mo           18.2118722234        0.9175880367        3.1133832384
S            20.0539629336        0.9830590659        1.5730475866
S            20.0111385629        0.9943955282        4.7073980719
Mo           15.3914345485        2.3901922322        3.0920705876
S            17.2200609509        2.4483413090        1.5329342225
S            17.2039499752        2.4606251766        4.6679029400
Mo           12.5714716802        3.8605816780        3.0986385857
S            14.3869085733        3.9248083156        1.5201746146
S            14.4010136107        3.9335583003        4.6555192030
Mo            9.7472605196        5.3134074093        3.1239891862
S            11.5548141281        5.3910411341        1.5324159199
S            11.5900934640        5.3996334563        4.6675917921
Mo            6.9175357749        6.7441450771        3.1496409701
S             8.7245162529        6.8320743634        1.5566679231
S             8.7651053382        6.8486301623        4.6912665780
Mo            4.0861902079        8.1592413881        3.1578384570
S             5.8975518896        8.2488842410        1.5730474141
S             5.9287811401        8.2803027689        4.7073978249
Mo            1.2616122671        9.5714798670        3.1428465959
S             3.0771723631        9.6561982174        1.5683174886
S             3.0930520363        9.7019120453        4.7033775762
Mo           -1.5480023176       10.9925245062        3.1151704567
S             0.2673875162       11.0727556958        1.5458392809
S             0.2727223128       11.1223170596        4.6821560847
Mo           -4.3402764816       12.4270450536        3.0932925766
S            -2.5287517782       12.5099133258        1.5229843498
S            -2.5246373412       12.5477590085        4.6597957331
Mo           -7.1206601140       13.8707784034        3.0916174017
S            -5.3129440849       13.9656625408        1.5169174600
S            -5.3041541994       13.9782725745        4.6532716789
S            -8.0931141042       15.4264670035        1.5347964228
S            -8.0795384863       15.4089399877        4.6701877311
Mo           23.6703371604        1.1798658918        3.2104874928
S            25.5128782138        1.2734356747        1.6765128572
S            25.4677183113        1.2926769910        4.8084165582
Mo           20.8471130236        2.6187613830        3.1496412063
S            22.6894070490        2.6916588793        1.6156239705
S            22.6405407854        2.7204740034        4.7487430789
Mo           18.0327193693        4.0788414188        3.1019625238
S            19.8674740892        4.1396870124        1.5566679342
S            19.8328412468        4.1665616134        4.6912664894
Mo           15.2225949872        5.5473293882        3.0809078140
S            17.0481349936        5.6099456172        1.5184872465
S            17.0365148573        5.6269465498        4.6540912453
Mo           12.4096980693        7.0084575600        3.0851306207
S            14.2291168338        7.0823994993        1.5084670667
S            14.2385600867        7.0881683021        4.6444265181
Mo            9.5891981746        8.4514421706        3.1019625774
S            11.4074654311        8.5385659291        1.5184871787
S            11.4279988405        8.5401283491        4.6540911121
Mo            6.7618958604        9.8769179310        3.1133832785
S             8.5834724104        9.9704757622        1.5329344655
S             8.6021658072        9.9782857286        4.6679030306
Mo            3.9347690390       11.2952331995        3.1073776349
S             5.7600851693       11.3856170873        1.5347965639
S             5.7684765725       11.4061364409        4.6701877588
Mo            1.1173366094       12.7192497490        3.0882117266
S             2.9419744788       12.8027501364        1.5200541024
S             2.9423557651       12.8320684575        4.6569962511
Mo           -1.6848097086       14.1563986064        3.0726682936
S             0.1334822206       14.2379412895        1.5018338547
S             0.1355416282       14.2634009688        4.6401114494
Mo           -4.4739489240       15.6042856927        3.0768273768
S            -2.6647181498       15.6934578587        1.4981224198
S            -2.6523812947       15.7020824340        4.6363437890
Mo           -7.2587297867       17.0524289520        3.1073777178
S            -5.4567851474       17.1584561346        1.5200540354
S            -5.4315844789       17.1434663669        4.6569962772
Mo          -10.0502885210       18.4892905953        3.1578386797
S            -8.2493768166       18.6146470243        1.5683178284
S            -8.2177269289       18.5780380068        4.7033775755
S           -11.0496454509       20.0488711864        1.6272885560
S           -11.0234604057       19.9993602345        4.7603878388
Mo           29.1316849401        1.5177708273        3.2842546610
Mo           26.2998023847        2.9214876000        3.2441573654
S            28.1281141233        3.0172685428        1.6956421373
S            28.1090289525        3.0552100059        4.8272770973
Mo           23.4790956947        4.3423497432        3.1829576141
S            25.3131305979        4.4220200663        1.6429705496
S            25.2765173570        4.4689761365        4.7754248133
Mo           20.6713058791        5.7847441932        3.1239890198
S            22.5039794985        5.8540455983        1.5823495848
S            22.4671253180        5.8959158927        4.7162079298
Mo           17.8721311153        7.2429581769        3.0851307008
S            19.7002968748        7.3113150548        1.5324157163
S            19.6752163909        7.3375723939        4.6675914664
Mo           15.0732200873        8.7025760175        3.0734559856
S            16.8983857015        8.7816497613        1.5084672869
S            16.8886683142        8.7869433455        4.6444266508
Mo           12.2660087117       10.1508371579        3.0809078516
S            14.0921576972       10.2436788669        1.5084672263
S            14.0924319037       10.2326162953        4.6444265451
Mo            9.4474278863       11.5831863002        3.0920707366
S            11.2787075577       11.6858230868        1.5201745918
S            11.2792326052       11.6692327664        4.6555193222
Mo            6.6211248318       13.0056307035        3.0916175798
S             8.4582522721       13.1076782549        1.5265326009
S             8.4507344818       13.0976469226        4.6616713277
Mo            3.7965077162       14.4309960969        3.0768275209
S             5.6350950447       14.5237171210        1.5169177053
S             5.6197795608       14.5250242458        4.6532718156
Mo            0.9819834484       15.8695840554        3.0604076680
S             2.8146667366       15.9532502261        1.4981225280
S             2.8010289039       15.9596216515        4.6363433877
Mo           -1.8208373323       17.3224420179        3.0604084050
S            -0.0000251530       17.4051231400        1.4870803214
S            -0.0000245468       17.4051219854        4.6260390903
Mo           -4.6167793551       18.7803891099        3.0882119567
S            -2.8096272945       18.8730866589        1.5018339110
S            -2.7886082096       18.8585734032        4.6401122265
Mo           -7.4149652784       20.2293276573        3.1428466806
S            -5.6177098543       20.3397129292        1.5458392078
S            -5.5774557497       20.3103130700        4.6821564254
Mo          -10.2239429119       21.6593454853        3.2086585522
S            -8.4290431554       21.7860734395        1.6111258575
S            -8.3809499242       21.7487253323        4.7449421033
Mo          -13.0467851124       23.0701904951        3.2630117571
S           -11.2443870731       23.2045626413        1.6754784058
S           -11.2067278211       23.1707419849        4.8075226180
S           -14.0630318706       24.6001977174        1.7165177469
S           -14.0524926155       24.5805196500        4.8479411816
Mo           26.1120557312        6.0842253149        3.1952491888
Mo           23.3082378088        7.5121021278        3.1408762040
S            25.1323811718        7.5882346488        1.5917118134
S            25.1091480375        7.6424988603        4.7254582855
Mo           20.5173845252        8.9569964111        3.0986384568
S            22.3404745287        9.0341704904        1.5457582792
S            22.3185437781        9.0694163624        4.6804015304
Mo           17.7310562147       10.4095622367        3.0809080581
S            19.5540434096       10.4970978719        1.5201747701
S            19.5394135986       10.5049379972        4.6555195624
Mo           14.9378305860       11.8563131824        3.0851305856
S            16.7640590485       11.9592176588        1.5184872958
S            16.7551456387       11.9406544157        4.6540913801
Mo           12.1308033921       13.2901511895        3.0986382870
S            13.9645486769       13.4053730245        1.5324155307
S            13.9543498375       13.3705233729        4.6675915178
Mo            9.3094700232       14.7128896908        3.1045089849
S            11.1524229160       14.8304066842        1.5457580630
S            11.1328652471       14.7937899895        4.6804015842
Mo            6.4812424245       16.1353804365        3.0932926083
S             8.3306378990       16.2433266790        1.5428842090
S             8.2991243415       16.2164995850        4.6780298505
Mo            3.6558448960       17.5704050985        3.0726684227
S             5.5037134652       17.6627728206        1.5229841454
S             5.4688814535       17.6474128853        4.6597957819
Mo            0.8387876146       19.0233272680        3.0604085664
S             2.6760811659       19.1043214523        1.5018340024
S             2.6530031731       19.0933750707        4.6401121233
Mo           -1.9710987310       20.4885447378        3.0726686616
S            -0.1500123307       20.5686407279        1.4981225152
S            -0.1487116507       20.5536444198        4.6363441115
Mo           -4.7794974528       21.9520026362        3.1151704498
S            -2.9750250717       22.0426620726        1.5229844683
S            -2.9443079264       22.0201769273        4.6597960275
Mo           -7.5938364596       23.3986782691        3.1789850591
S            -5.8005578741       23.5046868068        1.5766774673
S            -5.7478053203       23.4795710407        4.7115053759
Mo          -10.4180951127       24.8224655631        3.2432183023
S            -8.6265317966       24.9401052897        1.6412172986
S            -8.5682414021       24.9215509864        4.7739150654
Mo           23.1601787803       10.6889735459        3.1045090256
Mo           20.3807973687       12.1343504103        3.0920708098
S            22.1956336323       12.2287562779        1.5265324671
S            22.1907054088       12.2402824859        4.6616713819
Mo           17.5977421842       13.5774450647        3.1019626242
S            19.4161259246       13.6889124364        1.5329343392
S            19.4135433693       13.6688188247        4.6679030934
Mo           14.8010938694       15.0095764523        3.1239891789
S            16.6276706667       15.1359655472        1.5566679983
S            16.6217137843       15.0925361610        4.6912666668
Mo           11.9866920159       16.4295476271        3.1408762521
S            13.8247404158       16.5620676723        1.5823499391
S            13.8069067703       16.5092157567        4.7162077171
Mo            9.1591035165       17.8455859802        3.1379690999
S            11.0086878920       17.9712357185        1.5917120186
S            10.9733103712       17.9239831753        4.7254580644
Mo            6.3274368871       19.2708203737        3.1151705283
S             8.1826316330       19.3787421048        1.5766774785
S             8.1345039913       19.3456148443        4.7115056668
Mo            3.4993794642       20.7157096182        3.0882117508
S             5.3502599115       20.8028781311        1.5458392262
S             5.3046706782       20.7827170618        4.6821561846
Mo            0.6773778070       22.1800665363        3.0768274589
S             2.5147470411       22.2541427123        1.5200539684
S             2.4891653008       22.2398136038        4.6569960572
Mo           -2.1410295295       23.6529230372        3.0932929451
S            -0.3222144702       23.7259688130        1.5169176054
S            -0.3156886811       23.7120516394        4.6532718211
Mo           -4.9610416146       25.1169150150        3.1379689147
S            -3.1592108434       25.2005733544        1.5428845212
S            -3.1202226124       25.1866959648        4.6780301252
Mo           20.2458916641       15.3132228773        3.1133833580
Mo           17.4550114721       16.7448213948        3.1496412014
S            19.2681461552       16.8757836329        1.5730477537
S            19.2797409065       16.8330290978        4.7073978908
Mo           14.6463490430       18.1623913839        3.1829576527
S            16.4707339341       18.3038463867        1.6156240150
S            16.4702117003       18.2471193231        4.7487430319
Mo           11.8213606882       19.5716638055        3.1952492067
S            13.6603354324       19.7108767921        1.6429703779
S            13.6379762281       19.6556910466        4.7754250836
Mo            8.9874639349       20.9847715574        3.1789852663
S            10.8387262088       21.1083983067        1.6412175893
S            10.7935133084       21.0671948542        4.7739151673
Mo            6.1532903546       22.4145398051        3.1428468565
S             8.0085103381       22.5143841587        1.6111259005
S             7.9521199067       22.4914081814        4.7449422465
Mo            3.3238975406       23.8676859378        3.1073776431
S             5.1721421799       23.9445012436        1.5683177708
S             5.1246125826       23.9353963627        4.7033777672
Mo            0.4994720369       25.3389390602        3.0916173207
S             2.3329652288       25.4032648986        1.5347963323
S             2.3109982808       25.4002722898        4.6701874865
Mo           17.2895196734       19.9092531849        3.2104875921
Mo           14.4664984910       21.3156257619        3.2441574014
S            16.2872158664       21.4581555210        1.6765128643
S            16.2931313287       21.4094247938        4.8084169024
Mo           11.6326294912       22.7187577539        3.2432181359
S            13.4693938996       22.8510988398        1.6956420591
S            13.4460778304       22.8156005771        4.8272769287
Mo            8.7962108645       24.1321770900        3.2086585750
S            10.6446300610       24.2432991788        1.6754784520
S            10.5965119072       24.2275952659        4.8075224619
Mo            5.9640355660       25.5668151964        3.1578387895
S             7.8143503048       25.6524939281        1.6272886787
S             7.7583802951       25.6545719572        4.7603877902
Mo           14.2662114774       24.4699659906        3.2842544673
Mo           11.4294599519       25.8714076448        3.2630115146
S            13.2626088660       25.9864993884        1.7165175213
S            13.2402977188       25.9872106911        4.8479410828
End final coordinates



     Writing all to output data dir ./tmp/bilayer.save/
 
     init_run     :      2.97s CPU      4.80s WALL (       1 calls)
     electrons    :    668.65s CPU    895.14s WALL (       3 calls)
     update_pot   :      2.58s CPU      2.76s WALL (       2 calls)
     forces       :      2.85s CPU      6.32s WALL (       3 calls)

     Called by init_run:
     wfcinit      :      0.44s CPU      1.01s WALL (       1 calls)
                                        1.01s GPU  (       1 calls)
     potinit      :      1.39s CPU      1.72s WALL (       1 calls)
     hinit0       :      0.80s CPU      1.11s WALL (       1 calls)

     Called by electrons:
     c_bands      :    560.48s CPU    777.87s WALL (      56 calls)
     sum_band     :     64.25s CPU     67.67s WALL (      56 calls)
     v_of_rho     :     41.12s CPU     45.49s WALL (      57 calls)
     v_h          :      0.28s CPU      0.55s WALL (      57 calls)
     v_xc         :     40.54s CPU     44.62s WALL (      57 calls)
     mix_rho      :      5.32s CPU      6.62s WALL (      56 calls)
     vdW_kernel   :      0.66s CPU      0.68s WALL (       1 calls)

     Called by c_bands:
     init_us_2    :      1.68s CPU      1.91s WALL (     111 calls)
     init_us_2:gp :      1.68s CPU      1.90s WALL (     111 calls)
     regterg      :    555.19s CPU    770.22s WALL (      55 calls)

     Called by sum_band:
     sum_band:wei :      0.02s CPU      0.02s WALL (      56 calls)
                                        0.02s GPU  (      56 calls)
     sum_band:loo :     63.48s CPU     66.10s WALL (      56 calls)
                                       66.10s GPU  (      56 calls)
     sum_band:buf :      0.00s CPU      0.00s WALL (      56 calls)
                                        0.00s GPU  (      56 calls)
     sum_band:ini :      0.84s CPU      1.14s WALL (      56 calls)
                                        1.14s GPU  (      56 calls)

     Called by *egterg:
     rdiaghg      :    429.44s CPU    601.83s WALL (     255 calls)
                                      600.84s GPU  (     255 calls)
     regterg:over :     15.09s CPU     20.89s WALL (     204 calls)
     regterg:upda :      1.98s CPU      2.05s WALL (     204 calls)
     regterg:last :      3.72s CPU      3.75s WALL (     113 calls)
     h_psi        :     92.38s CPU    119.43s WALL (     259 calls)
                                      119.32s GPU  (     259 calls)
     g_psi        :      0.00s CPU      0.10s WALL (     204 calls)
                                        0.10s GPU  (     204 calls)

     Called by h_psi:
     h_psi:calbec :     14.75s CPU     21.64s WALL (     259 calls)
                                       21.64s GPU  (     259 calls)
     vloc_psi     :     73.57s CPU     93.53s WALL (     259 calls)
                                       93.44s GPU  (     259 calls)
     add_vuspsi   :      0.63s CPU      4.17s WALL (     259 calls)
                                        4.17s GPU  (     259 calls)

     General routines
     calbec       :     16.62s CPU     26.86s WALL (     271 calls)
     fft          :     14.76s CPU     18.31s WALL (    3313 calls)
                                        0.64s GPU  (     291 calls)
     ffts         :      3.82s CPU      5.21s WALL (     809 calls)
     fftw         :    128.76s CPU    157.25s WALL (  102222 calls)
                                      153.71s GPU  (  102222 calls)
     davcio       :      0.10s CPU      0.55s WALL (     873 calls)
 
     Parallel routines
 
     PWSCF        :  11m23.71s CPU  15m30.30s WALL

 
   This run was terminated on:   8:38:49  16Dec2023            

=------------------------------------------------------------------------------=
   JOB DONE.
=------------------------------------------------------------------------------=
