408
Lattice="33.00503374561979 4.667923630086229 0.0 3.2688165474894197 -23.112383666785405 0.0 0.0 0.0 27.75750718145229" Properties=species:S:1:pos:R:3:atom_types:I:1:forces:R:3 energy=-76844.25193622963 free_energy=-76844.25193622963 pbc="T T T"
P        1.63774636     -11.17011972       1.62097391        3       0.00336686       0.00351136       0.00498151
P        1.64888896      -7.31576157       3.67086086        1       0.00221886      -0.00420375       0.00301693
P        1.66348099      -6.51571501       1.54426854        3       0.00162082       0.00702682       0.00572816
P        1.62076215      -2.72133941       3.71646714        1       0.00352447      -0.00604466       0.00544508
P        1.63522774      -1.92035438       1.59887423        3      -0.00360777       0.00670364      -0.00018666
P        3.27372190     -22.70383942       3.74848079        0      -0.00237081       0.00923515      -0.00490387
P        4.92971721     -21.20761079       3.73350683        1       0.00035404      -0.00769068       0.00002417
P        3.28953072     -18.88785860       1.56194208        2      -0.00214687      -0.00695715       0.00065589
P        4.94336392     -20.39900416       1.60897922        3      -0.00066694       0.00451409       0.00593771
P        3.28920184     -18.06999226       3.67561933        0      -0.00340774      -0.00208208       0.00563354
P        4.91578716     -16.54274738       3.68340630        1      -0.00060061      -0.00422587       0.01002190
P        3.25458026     -14.25166915       1.58165317        2      -0.00064560      -0.00656865       0.00484216
P        4.93381781     -15.73731510       1.56460842        3      -0.00713173       0.00827664       0.00012238
P        3.26993054     -13.47817683       3.72050195        0       0.00230577       0.00265749      -0.00601201
P        4.91810486     -11.97204037       3.74359171        1      -0.00198643      -0.00177046       0.00229445
P        3.29816975      -9.66368111       1.58242628        2      -0.00689107      -0.00452283      -0.00008999
P        4.93982774     -11.18422663       1.61570419        3      -0.00670544       0.00636734      -0.00391039
P        3.29466667      -8.81960514       3.69063965        0       0.00106752       0.00075770      -0.00000283
P        4.93771646      -7.31481878       3.68713643        1      -0.00293980      -0.00286164       0.00093331
P        3.28821897      -4.96633862       1.57019397        2       0.00085155      -0.00808535      -0.00135086
P        4.95594525      -6.45791184       1.58334938        3      -0.00102690       0.00530547      -0.00055742
P        3.29325902      -4.19883761       3.70507200        0       0.00360417      -0.00593873      -0.00434928
P        4.93166188      -2.67887050       3.72948076        1      -0.00569782      -0.00382220      -0.00300716
P        3.29499026      -0.40681350       1.57745596        2       0.00129172      -0.00381295      -0.00244820
P        4.96389428      -1.89941524       1.59762089        3      -0.00703274       0.00986069      -0.00202166
P        3.29444021       0.38738084       3.70716998        0       0.00439916      -0.00167507       0.00054687
P        8.20578150     -21.21806418       3.72262526        1      -0.00199749       0.00144573      -0.00175606
P        6.57244999     -18.85903319       1.60474219        2      -0.00370599      -0.00691807      -0.00252225
P        8.21368930     -20.37652126       1.61573362        3       0.00259219       0.00773619      -0.00405257
P        6.56620123     -18.04153619       3.72038191        0       0.00236053      -0.00521908       0.00156606
P        8.21930078     -16.54222141       3.72019717        1      -0.00434542      -0.00724614      -0.00537489
P        6.58009993     -14.20486086       1.59990609        2       0.01108351      -0.00494192      -0.00282924
P        8.23553907     -15.71227900       1.60582065        3       0.00225152       0.00791051       0.00363400
P        6.58273216     -13.45968013       3.73801966        0       0.00455959      -0.00411814       0.00303699
P        8.22519182     -11.94417559       3.73063895        1       0.00013935       0.00020569      -0.00455934
P        6.57787290      -9.65067035       1.58530760        2      -0.00255773      -0.00172135      -0.00080810
P        8.23980341     -11.15309892       1.60445860        3      -0.00099399       0.01012038      -0.00548133
P        6.56622830      -8.83741065       3.70374886        0      -0.00082712      -0.00122179       0.00906057
P        8.22157587      -7.34136965       3.73765068        1       0.00071374      -0.00117397       0.00123104
P        6.60170169      -4.93878218       1.66456391        2       0.00141565      -0.00524736      -0.00475551
P        8.21158421      -6.49530445       1.63976046        3       0.00635577       0.00484833      -0.00379109
P        6.59180069      -4.17436828       3.79129210        0      -0.00005502      -0.00078830       0.00278116
P        8.26311152      -2.68447258       3.75976294        1       0.00071682      -0.00674040      -0.00131640
P        6.61244335      -0.37591473       1.59916933        2       0.00043452      -0.00291152      -0.00337329
P        8.26446266      -1.89361262       1.63336727        3       0.00608272       0.00479691       0.00072994
P        6.59968101       0.40282044       3.72148706        0      -0.00211036      -0.00239601       0.01131131
P       11.51139610     -21.19659677       3.72626010        1       0.00483702       0.00162674       0.00721554
P        9.85902008     -18.86069484       1.65017640        2      -0.00951925      -0.00230011       0.00374533
P       11.49655714     -20.39311145       1.61410532        3       0.00323496       0.00448760      -0.00581378
P        9.84748015     -18.07275122       3.77489299        0      -0.00263101       0.00650026       0.00477814
P       11.52898923     -16.59254371       3.80601733        1       0.00243612      -0.00624778       0.00187485
P        9.91539854     -14.23450483       1.65837022        2      -0.00381577      -0.00254668      -0.00416647
P       11.51398810     -15.80739377       1.68692210        3       0.00862374       0.00309895      -0.00027074
P        9.89531446     -13.43325101       3.76825099        0      -0.00286292       0.00162159       0.00479588
P       11.55498074     -11.93565256       3.72246412        1       0.00459816      -0.00125624       0.00949534
P        9.88149637      -9.63455728       1.60525447        2      -0.00385511      -0.00569576      -0.00458505
P       11.54381240     -11.14253587       1.60008274        3       0.00580504       0.00206460      -0.00012418
P        9.87946191      -8.84362409       3.72848632        0      -0.00463184       0.00088677       0.00283953
P       11.53335194      -7.33819834       3.76403394        1      -0.00078984       0.00122590       0.00670878
P        9.90105335      -5.03385614       1.64910345        2      -0.00807249      -0.00424232       0.00144033
P       11.52376043      -6.57951568       1.63751267        3      -0.00626321       0.00397415      -0.00416750
P        9.89731141      -4.21419860       3.76103783        0       0.00027665       0.00728162      -0.00013678
P       11.56788325      -2.72835748       3.75460498        1       0.00106187       0.00057644       0.00561503
P        9.92327192      -0.39604921       1.61541906        2      -0.00259090      -0.00806092      -0.00559241
P       11.55780766      -1.92584125       1.63492312        3       0.00365457       0.00343525      -0.00032550
P        9.91759462       0.43368521       3.72194961        0      -0.00168793      -0.00244435       0.00091300
P       14.82749306     -21.16761363       3.70892723        1      -0.00212116       0.00291589       0.00819051
P       13.15421677     -18.88965375       1.61065449        2       0.00176686      -0.01003399       0.00063095
P       14.82067562     -20.38796309       1.58047132        3      -0.00535715       0.00266649      -0.00264438
P       13.17714363     -18.10547995       3.74326639        0       0.00338589       0.00519826      -0.00860420
P       14.82767993     -16.59617213       3.74952826        1      -0.00366382       0.00632851      -0.00133697
P       13.18389057     -14.32198171       1.60993509        2      -0.00532630      -0.00646658      -0.00120173
P       14.82697756     -15.83844218       1.61615096        3      -0.00456165       0.00704791      -0.00552170
P       13.19500035     -13.45124966       3.70497362        0       0.00292592       0.00191393      -0.00260350
P       14.84298086     -11.95204132       3.68785097        1      -0.00278708       0.00160411       0.00313237
P       13.17987829      -9.61141590       1.60687618        2       0.00311926      -0.00922872      -0.00552427
P       14.83601805     -11.11445411       1.57555786        3       0.00561812       0.00362063      -0.00215587
P       13.20480901      -8.82218217       3.73502215        0       0.00377926      -0.00078753      -0.00301925
P       14.84492324      -7.30621368       3.72042226        1      -0.00537926       0.00301025      -0.00430480
P       13.18025850      -5.06439039       1.57962077        2       0.00514529      -0.00867285       0.00078110
P       14.85608628      -6.54967293       1.57888900        3      -0.00589991       0.00651620      -0.00022446
P       13.20307243      -4.24581631       3.69740124        0       0.00454905       0.00567288      -0.00000489
P       14.84106840      -2.73119683       3.69074185        1      -0.00149561       0.00479356       0.00044711
P       13.19177160      -0.39350527       1.61403671        2       0.00185145      -0.00482288      -0.00173729
P       14.83673679      -1.90782560       1.57728564        3       0.00477171       0.00844325      -0.00040546
P       13.20390255       0.43880176       3.72758483        0       0.00191881       0.00143108       0.00102124
P       14.85363711       1.93875132       3.72546543        1      -0.00222169      -0.00329538      -0.00406183
P       16.47063327     -18.86082960       1.59787981        2       0.00974088      -0.00888239      -0.00328330
P       18.12629425     -20.37052532       1.59832584        3       0.00343602       0.00381989       0.00154523
P       16.49777963     -18.07802532       3.72359632        0       0.00242635       0.00377412       0.00613517
P       18.13244009     -16.55637100       3.67830965        1       0.00021957       0.00112152      -0.00120842
P       16.45632194     -14.29549496       1.56022571        2       0.00244435      -0.00594490       0.00358515
P       18.14156412     -15.77453445       1.54570843        3       0.00163008       0.00744874       0.00239653
P       16.47407235     -13.47003313       3.67677246        0       0.00004217       0.00466655       0.00571993
P       18.11275320     -11.95746579       3.70584144        1       0.00386180      -0.00412122       0.00185197
P       16.48417598      -9.59191097       1.62420165        2       0.00261893      -0.00534250       0.00241761
P       18.11589577     -11.13108832       1.59539073        3       0.00313623       0.00367128       0.00070577
P       16.49871243      -8.80408257       3.75242476        0      -0.00245669       0.00836380      -0.00069523
P       18.15386210      -7.30550668       3.72970076        1       0.00086029      -0.00896801      -0.00370804
P       16.50024302      -5.01795512       1.55822388        2       0.00122667      -0.00752151       0.00143082
P       18.17007690      -6.51653967       1.59657108        3       0.00317403       0.00476323       0.00922358
P       16.50894238      -4.21072570       3.67490007        0      -0.00417033       0.00237364       0.01008567
P       18.13050085      -2.67752857       3.67489978        1       0.00416930      -0.00237339       0.01008644
P       16.46936615      -0.37171554       1.59657148        2      -0.00317428      -0.00476245       0.00922306
P       18.13919986      -1.87029983       1.55822364        3      -0.00122642       0.00752253       0.00143005
P       16.48558125       0.41725089       3.72970144        0      -0.00086081       0.00896852      -0.00370830
P       18.14073166       1.91582610       3.75242524        1       0.00245669      -0.00836303      -0.00069574
P       19.79235067     -18.86954896       1.59538928        2      -0.00313649      -0.00367179       0.00070577
P       21.42407184     -20.40872496       1.62420135        3      -0.00261970       0.00534250       0.00241812
P       19.79549345     -18.04317156       3.70584004        0      -0.00386154       0.00412174       0.00185068
P       21.43417306     -16.53060277       3.67677161        1      -0.00004319      -0.00466630       0.00571942
P       19.76668197     -14.22610097       1.54570822        2      -0.00163008      -0.00744926       0.00239704
P       21.45192402     -15.70514072       1.56022493        3      -0.00244383       0.00594516       0.00358463
P       19.77580709     -13.44426544       3.67830983        0      -0.00021932      -0.00112203      -0.00120893
P       21.41046629     -11.92260977       3.72359702        1      -0.00242609      -0.00377515       0.00613465
P       19.78195077      -9.63011061       1.59832576        2      -0.00343499      -0.00381886       0.00154549
P       21.43761325     -11.13980382       1.59788084        3      -0.00974088       0.00888213      -0.00328278
P       19.78580521      -8.82700850       3.72546460        0       0.00222195       0.00329513      -0.00406209
P       21.43553956      -7.32705881       3.72758368        1      -0.00191933      -0.00143108       0.00102176
P       19.80270608      -4.98042923       1.57728530        2      -0.00477120      -0.00844299      -0.00040572
P       21.44767059      -6.49475075       1.61403602        3      -0.00185094       0.00482288      -0.00173704
P       19.79837477      -4.15705715       3.69074143        0       0.00149587      -0.00479331       0.00044789
P       21.43637133      -2.64243826       3.69740093        1      -0.00454931      -0.00567262      -0.00000489
P       19.78335715      -0.33858282       1.57888920        2       0.00590094      -0.00651466      -0.00022446
P       21.45918506      -1.82386511       1.57962027        3      -0.00514478       0.00867336       0.00078162
P       19.79452006       0.41795567       3.72042314        0       0.00537926      -0.00300973      -0.00430377
P       21.43463457       1.93392423       3.73502369        1      -0.00377926       0.00078701      -0.00301976
P       21.45956569       2.72315809       1.60687747        3      -0.00311952       0.00922846      -0.00552453
P       23.07222868     -18.88618028       1.57555755        2      -0.00561735      -0.00362037      -0.00215664
P       23.06526629     -18.04859159       3.68785024        0       0.00278708      -0.00160565       0.00313135
P       24.71324540     -16.54938191       3.70497239        1      -0.00292669      -0.00191264      -0.00260324
P       23.08126716     -14.16219151       1.61614954        2       0.00456165      -0.00704791      -0.00552067
P       24.72435546     -15.67865061       1.60993370        3       0.00532707       0.00646710      -0.00120276
P       23.08056628     -13.40446213       3.74952711        0       0.00366382      -0.00632774      -0.00133646
P       24.73110170     -11.89515345       3.74326548        1      -0.00338563      -0.00519954      -0.00860600
P       23.08757015      -9.61266963       1.58047138        2       0.00535638      -0.00266701      -0.00264438
P       24.75402944     -11.11097824       1.61065366        3      -0.00176712       0.01003424       0.00063223
P       23.08075333      -8.83301763       3.70892687        0       0.00212090      -0.00291615       0.00818999
P       24.72184827      -7.32193937       3.72194888        1       0.00168844       0.00244435       0.00091223
P       23.08163453      -4.96241468       1.63492315        2      -0.00365457      -0.00343397      -0.00032653
P       24.71617133      -6.49220521       1.61541807        3       0.00258987       0.00806118      -0.00559138
P       23.07155932      -4.15989897       3.75460518        0      -0.00106212      -0.00057593       0.00561503
P       24.74213205      -2.67405880       3.76103821        1      -0.00027716      -0.00728085      -0.00013781
P       23.11568337      -0.30873997       1.63751256        2       0.00626424      -0.00397313      -0.00416802
P       24.73839032      -1.85439998       1.64910375        3       0.00807198       0.00424463       0.00144136
P       23.10609162       0.44994030       3.76403425        0       0.00079113      -0.00122487       0.00670955
P       24.75998088       1.95536686       3.72848684        1       0.00463159      -0.00088626       0.00284004
P       24.75794688       2.74630182       1.60525536        3       0.00385563       0.00569551      -0.00458556
P       26.36443332     -18.85809729       1.60008361        2      -0.00580478      -0.00206382      -0.00012650
P       26.35326506     -18.06497901       3.72246428        0      -0.00459765       0.00125727       0.00949534
P       28.01293066     -16.56737966       3.76825007        1       0.00286344      -0.00162262       0.00479562
P       26.39425708     -14.19323725       1.68692111        2      -0.00862374      -0.00309844      -0.00027177
P       27.99284676     -15.76612602       1.65836900        3       0.00381603       0.00254771      -0.00416750
P       26.37925616     -13.40808954       3.80601669        0      -0.00243638       0.00624752       0.00187536
P       28.06076556     -11.92788251       3.77489253        1       0.00263152      -0.00650078       0.00477840
P       26.41168852      -9.60751955       1.61410594        2      -0.00323548      -0.00448837      -0.00581301
P       28.04922494     -11.13993700       1.65017635        3       0.00951977       0.00230037       0.00374533
P       26.39684877      -8.80403543       3.72626094        0      -0.00483676      -0.00162622       0.00721529
P       28.03976233      -7.29107770       3.72148732        1       0.00210959       0.00239627       0.01131260
P       26.37498104      -4.99464210       1.63336756        2      -0.00608220      -0.00479691       0.00072942
P       28.02699919      -6.51234181       1.59916966        3      -0.00043246       0.00291075      -0.00337329
P       26.37633184      -4.20378528       3.75976362        0      -0.00071708       0.00674092      -0.00131666
P       28.04764252      -2.71388934       3.79129303        1       0.00005579       0.00078753       0.00278142
P       26.42785927      -0.39295154       1.63976145        2      -0.00635602      -0.00484704      -0.00379109
P       28.03774156      -1.94947381       1.66456507        3      -0.00141591       0.00524788      -0.00475474
P       26.41786772       0.45311420       3.73765149        0      -0.00071400       0.00117422       0.00123156
P       28.07321477       1.94915576       3.70374952        1       0.00082687       0.00122333       0.00906160
P       28.06157014       2.76241521       1.58530838        3       0.00255670       0.00172058      -0.00080938
P       29.66844243     -18.84753283       1.60445978        2       0.00099373      -0.01012038      -0.00548031
P       29.68305363     -18.05645454       3.73063969        0      -0.00013935      -0.00020543      -0.00456062
P       31.32551411     -16.54095080       3.73801897        1      -0.00456062       0.00411736       0.00303647
P       29.67270724     -14.28835303       1.60581948        2      -0.00225203      -0.00790974       0.00363528
P       31.32814566     -15.79577255       1.59990472        3      -0.01108454       0.00494243      -0.00282796
P       29.68894494     -13.45841231       3.72019661        0       0.00434491       0.00724640      -0.00537438
P       31.34204540     -11.95909852       3.72038307        1      -0.00236027       0.00521857       0.00156529
P       29.69455750      -9.62411297       1.61573390        2      -0.00259141      -0.00773594      -0.00405283
P       31.33579667     -11.14160162       1.60474345        3       0.00370547       0.00691807      -0.00252277
P       29.70246411      -8.78257049       3.72262537        0       0.00199698      -0.00144599      -0.00175606
P       31.34500280      -7.27563974       3.70717111        1      -0.00439813       0.00167405       0.00054585
P       29.67554932      -4.98884262       1.59762154        2       0.00703274      -0.00986147      -0.00202089
P       31.34445298      -6.48144437       1.57745717        3      -0.00129249       0.00381372      -0.00244820
P       29.70778192      -4.20938603       3.72948122        0       0.00569705       0.00382349      -0.00300896
P       31.34618400      -2.68941833       3.70507150        1      -0.00360366       0.00593951      -0.00434799
P       29.68349738      -0.43034364       1.58335101        2       0.00102690      -0.00530444      -0.00055870
P       31.35122385      -1.92191683       1.57019399        3      -0.00085129       0.00808612      -0.00135163
P       29.70172575       0.42656258       3.68713823        0       0.00293980       0.00286164       0.00093408
P       31.34477610       1.93134815       3.69064148        1      -0.00106752      -0.00075693      -0.00000026
P       31.34127217       2.77542269       1.58242790        3       0.00689184       0.00452411      -0.00009256
P       32.96841887     -18.81640569       1.61570484        2       0.00670467      -0.00636785      -0.00391168
P       32.99014088     -18.02859173       3.74359205        0       0.00198566       0.00177046       0.00229522
P       34.63831607     -16.52245627       3.72050139        1      -0.00230525      -0.00265801      -0.00601150
P       32.97442864     -14.26331944       1.56460737        2       0.00713147      -0.00827561       0.00012238
P       34.65366587     -15.74896566       1.58165218        3       0.00064509       0.00656814       0.00484216
P       32.99245876     -13.45788862       3.68340598        0       0.00060035       0.00422535       0.01002165
P       34.61904528     -11.93064516       3.67562021        1       0.00340748       0.00208208       0.00563354
P       32.96488311      -9.60163077       1.60898053        2       0.00066592      -0.00451460       0.00593873
P       34.61871612     -11.11277697       1.56194344        3       0.00214559       0.00695663       0.00065640
P       32.97852918      -8.79302370       3.73350819        0      -0.00035353       0.00769120       0.00002288
P       34.63452410      -7.29679431       3.74848148        1       0.00237081      -0.00923592      -0.00490309
P       33.00421536      -4.96790362       1.59887451        2       0.00360726      -0.00670364      -0.00018692
P       33.01868100      -4.16691589       3.71646679        0      -0.00352344       0.00604389       0.00544585
P       32.97596164      -0.37253985       1.54426891        2      -0.00162108      -0.00702708       0.00572867
P       32.99055454       0.42750560       3.67086156        0      -0.00221886       0.00420504       0.00301719
P       33.00169596       4.28186070       1.62097357        2      -0.00336583      -0.00351136       0.00498126
P        4.30735274     -20.81386637      -1.59887369        5      -0.00160514      -0.00744103       0.00018898
P        4.07133015     -20.04830831      -3.71646634        7       0.00171030       0.00678308      -0.00544765
P        3.06013733     -16.39090539      -1.54426835        5       0.00350596      -0.00630023      -0.00572482
P        2.82425326     -15.62628397      -3.67086016        7       0.00096596       0.00465241      -0.00302053
P        1.74467792     -11.92618781      -1.62097337        5       0.00420787      -0.00243818      -0.00497714
P        6.54145877     -22.57096648      -3.70716895        6       0.00376152       0.00283027      -0.00054739
P        6.32174516     -21.80776842      -1.57745500        4       0.00018486       0.00402121       0.00244898
P        7.51127366     -19.91089647      -1.59761991        5      -0.00402223      -0.01142470       0.00202217
P        5.26849858     -18.16495114      -3.70507094        6       0.00181546       0.00670415       0.00434671
P        7.26415092     -19.17095092      -3.72947965        7      -0.00653523       0.00209314       0.00300665
P        5.05081632     -17.42895007      -1.57019329        4      -0.00142028       0.00800230       0.00135317
P        6.23949836     -15.53339312      -1.58334878        5       0.00048517      -0.00537978       0.00055973
P        3.98844452     -13.72502450      -3.69063874        6       0.00123593      -0.00043066      -0.00000103
P        5.98435172     -14.71515013      -3.68713557        7      -0.00361831       0.00193476      -0.00093588
P        3.75773553     -12.91308254      -1.58242585        4      -0.00787349       0.00243303       0.00009359
P        4.91333684     -10.99691853      -1.61570392        5      -0.00467709      -0.00797453       0.00391245
P        2.67278799      -9.25602598      -3.72050130        6       0.00295394      -0.00191264       0.00601124
P        4.67399325     -10.24602768      -3.74359116        7      -0.00239935       0.00115185      -0.00229625
P        2.44353935      -8.51712714      -1.58165279        4      -0.00244255       0.00613260      -0.00484190
P        3.64492441      -6.62407228      -1.56460853        5      -0.00455831      -0.00992831      -0.00012136
P        1.41792562      -4.83896061      -3.67561871        6      -0.00385126       0.00105698      -0.00563432
P        3.40424243      -5.85522930      -3.68340622        7      -0.00174861       0.00389291      -0.01002216
P        1.19143535      -4.05307992      -1.56194168        4      -0.00399164       0.00608863      -0.00065512
P        2.36134122      -2.14257049      -1.60897875        5       0.00060961      -0.00452360      -0.00593693
P        0.11801901      -0.39114897      -3.74847974        6       0.00028436      -0.00952954       0.00490001
P        2.12399090      -1.36946212      -3.73350604        7      -0.00179077       0.00748500      -0.00002494
P        9.72134675     -21.66920882      -3.72148662        6      -0.00269220       0.00171621      -0.01131183
P        9.51765446     -20.91747721      -1.59916893        4      -0.00039364       0.00291794       0.00337483
P       10.68400023     -19.00117563      -1.63336702        5       0.00717363      -0.00292103      -0.00072891
P        8.44445401     -17.27372694      -3.79129117        6      -0.00027151       0.00074151      -0.00278296
P       10.46338434     -18.24170870      -3.75976255        7      -0.00118039       0.00667356       0.00131589
P        8.24198407     -16.53654826      -1.66456315        4      -0.00009642       0.00543197       0.00475551
P        9.35707913     -14.59463013      -1.63976070        5       0.00744900      -0.00289635       0.00379495
P        7.12675469     -12.80066535      -3.70374848        6      -0.00113463       0.00094539      -0.00906391
P        9.13205207     -13.77897800      -3.73765059        7       0.00036150       0.00132360      -0.00123413
P        6.91241424     -12.01607307      -1.58530769        4      -0.00293569       0.00094334       0.00081144
P        8.09251695     -10.11169347      -1.60445890        5       0.00185042      -0.00999876       0.00548288
P        5.86078812      -8.35510877      -3.73801939        6       0.00323882       0.00522088      -0.00304007
P        7.85910076      -9.35569569      -3.73063891        7       0.00019206      -0.00015915       0.00455599
P        5.65160996      -7.63988405      -1.59990627        4       0.00927783       0.00782207       0.00283104
P        6.82409201      -5.73251046      -1.60582149        5       0.00435725      -0.00697592      -0.00363245
P        4.57428968      -3.95754010      -3.72038176        6       0.00081941       0.00566774      -0.00156734
P        6.57833518      -4.93962191      -3.72019779        7      -0.00618530       0.00575670       0.00537438
P        4.35358969      -3.17037321      -1.60474209        4      -0.00548082       0.00561812       0.00252328
P        5.50963647      -1.25726273      -1.61573358        5       0.00463724      -0.00671289       0.00405489
P        5.26866657      -0.45091844      -3.72262477        7      -0.00151978      -0.00194247       0.00175504
P       12.91768814     -20.77875755      -3.72194974        6      -0.00229857       0.00188179      -0.00091428
P       12.69304554     -19.97999168      -1.61541932        4      -0.00472492       0.00702734       0.00559446
P       13.83923910     -18.05691844      -1.63492342        5       0.00446523      -0.00228648       0.00032627
P       11.60927412     -16.31879253      -3.76103825        6       0.00228648      -0.00691858       0.00013678
P       13.62637024     -17.28308381      -3.75460533        7       0.00118014      -0.00025814      -0.00561529
P       11.38556636     -15.53024524      -1.64910397        4      -0.00893047       0.00183808      -0.00143853
P       12.51599542     -13.59520735      -1.63751296        5      -0.00491466      -0.00555461       0.00416879
P       10.30831759     -11.87588769      -3.72848648        6      -0.00420375      -0.00213324      -0.00284158
P       12.31481735     -12.86362121      -3.76403423        7      -0.00041909      -0.00139714      -0.00670878
P       10.09093505     -11.11541105      -1.60525494        4      -0.00528285       0.00440276       0.00458685