368
Lattice="19.75410652665958 18.436512185165608 0.0 23.17017291923356 -13.902265877089722 0.0 0.0 0.0 27.75748832387427" Properties=species:S:1:pos:R:3:atom_types:I:1:forces:R:3 energy=-69310.7941513973 free_energy=-69310.7941513973 pbc="T T T"
P        4.94559640      -2.71540137       3.72680163        1       0.00165888      -0.00565566      -0.00556952
P        3.29827900      -0.44243336       1.57310597        2       0.00428371       0.00618453       0.00272177
P        4.96094503      -1.94838301       1.59174507        3      -0.00740658      -0.00271431       0.00177689
P        3.29746301       0.35507359       3.70425884        0      -0.00011981       0.00184605       0.00242249
P        4.94826990       1.85105284       3.72028025        1       0.00692321       0.00158020      -0.00744669
P        4.93990129       2.68889944       1.60710066        3      -0.00729859      -0.00774853       0.00046820
P        8.27429263      -2.68710866       3.73253900        1       0.00513424       0.00406131      -0.00291615
P        6.61527742      -0.42627654       1.56405510        2       0.00019772       0.00954239       0.00213659
P        8.29024267      -1.92290177       1.59220914        3      -0.00983524       0.00005476       0.00552916
P        6.59772682       0.34714228       3.69396679        0       0.00611331       0.00524634       0.00540986
P        8.23446386       1.86044573       3.70504152        1       0.01169286       0.00967532       0.00147144
P        6.57320934       4.21875523       1.60677050        2       0.00013575       0.00828898       0.00279993
P        8.21738825       2.69921540       1.59655740        3      -0.00464933      -0.00293543       0.00506225
P        6.54286417       5.03321397       3.72463403        0      -0.00031547       0.00253151       0.00087906
P        8.21092317       6.51213521       3.74886130        1       0.01019905       0.00552864      -0.00193578
P        8.20209001       7.37787178       1.65292456        3      -0.00391502      -0.00527668       0.00241298
P        9.97708758      -4.97725901       1.68653212        2      -0.00178409       0.00640436      -0.00067954
P       11.56519436      -6.55843377       1.70059617        3       0.00109220      -0.00651260       0.00246954
P        9.93655444      -4.18807196       3.80132662        0      -0.00245026      -0.00310641      -0.00230139
P       11.61952206      -2.71275471       3.75545888        1      -0.00141231       0.00489538       0.00170104
P        9.94439936      -0.41302568       1.59729336        2      -0.00418370       0.00188848       0.00670569
P       11.59416501      -1.93812080       1.62411582        3       0.00331338      -0.00416416       0.00970077
P        9.90943099       0.37771578       3.71499839        0      -0.00001903      -0.00390371       0.00592511
P       11.55272048       1.88940920       3.71499830        1       0.00001903       0.00390371       0.00592562
P        9.86798642       4.20524585       1.62411598        2      -0.00331338       0.00416416       0.00970052
P       11.51775210       2.68015077       1.59729331        3       0.00418318      -0.00188848       0.00670595
P        9.84262937       4.97987985       3.75545904        0       0.00141231      -0.00489538       0.00170078
P       11.52559698       6.45519709       3.80132664        1       0.00245026       0.00310666      -0.00230114
P        9.89695708       8.82555904       1.70059626        2      -0.00109220       0.00651260       0.00246929
P       11.48506388       7.24438430       1.68653218        3       0.00178383      -0.00640436      -0.00067954
P       14.90368303      -7.43719746       3.79550134        1       0.00313083       0.00205277      -0.00578755
P       13.26006145      -5.11074654       1.65292439        2       0.00391502       0.00527693       0.00241298
P       14.86686469      -6.66765515       1.66982454        3      -0.00090657      -0.00681651      -0.00461950
P       13.25122830      -4.24500999       3.74886115        0      -0.01019879      -0.00552890      -0.00193604
P       14.91928729      -2.76608875       3.72463390        1       0.00031573      -0.00253151       0.00087906
P       13.24476320      -0.43209036       1.59655736        2       0.00464933       0.00293569       0.00506225
P       14.88894216      -1.95163010       1.60677036        3      -0.00013575      -0.00828898       0.00279993
P       13.22768761       0.40667925       3.70504151        0      -0.01169286      -0.00967532       0.00147119
P       14.86442461       1.91998272       3.69396668        1      -0.00611331      -0.00524582       0.00540986
P       13.17190872       4.19002689       1.59220927        2       0.00983550      -0.00005476       0.00552890
P       14.84687396       2.69340170       1.56405503        3      -0.00019772      -0.00954239       0.00213659
P       13.18785881       4.95423381       3.73253914        0      -0.00513424      -0.00406131      -0.00291640
P       14.84008320       6.46354787       3.74070235        1      -0.00194298       0.00030750      -0.00189979
P       13.16776893       8.71546341       1.61059487        2       0.00909553       0.00478739       0.00375073
P       14.82100081       7.20069808       1.60147014        3      -0.00310178      -0.00283567      -0.00285958
P       13.18821883       9.54227707       3.72853560        0      -0.00215613       0.00150590      -0.00352061
P       14.84901308      11.03212855       3.72662803        1       0.00728831       0.00300099      -0.00405386
P       14.81819882      11.84649541       1.61042729        3      -0.00488381      -0.00484833      -0.00261995
P       16.52962209      -9.71411130       1.58253412        2       0.01112851       0.00448503       0.00479408
P       16.55798324      -8.94244418       3.71855284        0       0.00105544       0.00493703      -0.00324499
P       18.19953138      -7.42487138       3.69812558        1       0.00766112       0.00533221      -0.00358463
P       16.51939624      -5.16159409       1.58050531        2       0.00697000       0.01056826       0.00485810
P       18.18341756      -6.65944442       1.56338068        3      -0.00704225       0.00107601      -0.00167970
P       16.53812123      -4.30006462       3.68521589        0      -0.00052990       0.00260684      -0.00097368
P       18.18034574      -2.79842314       3.67949570        1       0.00870910       0.00480591       0.00225897
P       16.52225017      -0.42177426       1.60710047        2       0.00729859       0.00774853       0.00046820
P       18.16202471      -1.94007227       1.57475959        3      -0.00522037      -0.00584026       0.00082378
P       16.51388161       0.41607229       3.72028008        0      -0.00692347      -0.00158020      -0.00744694
P       18.16468838       1.91205165       3.70425863        1       0.00011981      -0.00184605       0.00242249
P       16.50120624       4.21550824       1.59174506        2       0.00740658       0.00271431       0.00177689
P       18.16387230       2.70955865       1.57310578        3      -0.00428371      -0.00618453       0.00272151
P       16.51655498       4.98252660       3.72680163        0      -0.00165888       0.00565540      -0.00556978
P       18.16125218       6.49700628       3.69062984        1       0.00526665       0.00352215      -0.00168304
P       16.47603376       8.72247306       1.54912094        2       0.00723997       0.00895849       0.00757807
P       18.16373754       7.24135063       1.54451034        3      -0.00663833       0.00083407       0.00266649
P       16.49575969       9.52707880       3.67156532        0       0.00446189       0.00561529       0.00267960
P       18.12270570      11.05199928       3.65842132        1       0.00992266       0.00897829       0.00300691
P       16.44727191      13.38032171       1.58649194        2       0.00384946       0.00973702       0.00471515
P       18.10374443      11.87703097       1.54361840        3      -0.00601381      -0.00077262       0.00270969
P       16.44760931      14.22397592       3.69923337        0      -0.00088009       0.00021212      -0.00240321
P       18.09887004      15.71689010       3.70477650        1       0.00486118       0.00340080       0.00450740
P       18.08943969      16.55921024       1.59279912        3      -0.00352215      -0.00583923       0.00356715
P       21.53536133     -11.96571300       3.72610760        1       0.00242224       0.00098473      -0.00062709
P       19.87275486      -9.68721256       1.57101253        2       0.00394099       0.00254436       0.00524119
P       21.53723430     -11.19482130       1.58543955        3      -0.00159228      -0.00299276       0.00541500
P       19.87839626      -8.89815015       3.69441738        0       0.00341494       0.00463390       0.00149201
P       21.50719960      -7.37047703       3.65152765        1       0.00707696       0.00629715       0.00204788
P       19.81273841      -5.11548114       1.53159461        2       0.00200546       0.00665016       0.00840005
P       21.50362685      -6.59202781       1.51761322        3      -0.00299868       0.00014064       0.00522705
P       19.82045115      -4.30662945       3.65522723        0       0.00129738      -0.00000334       0.00426572
P       21.45246051      -2.78893473       3.67887067        1       0.00398495       0.00507767       0.00536769
P       19.80225809      -0.41770670       1.61684972        2       0.00025197       0.00781358       0.00388597
P       21.43826543      -1.94853006       1.57230646        3      -0.00292694      -0.00303082       0.00492083
P       19.79086824       0.38359323       3.74584213        0      -0.00196149      -0.00026662      -0.00508256
P       21.46574453       1.85736508       3.75459479        1       0.00172752       0.00055664      -0.00197024
P       19.83347688       4.20625237       1.61225948        2       0.00138377       0.00361420       0.00259399
P       21.45676229       2.65524980       1.62585582        3       0.00052630      -0.00584360       0.00406466
P       19.82657122       5.00853548       3.73293258        0       0.00016738       0.00064098      -0.00167507
P       21.48254999       6.50481643       3.69179208        1       0.00269477       0.00265235       0.00057747
P       19.80385370       8.77725704       1.52960862        2       0.00143673       0.00163728       0.00733973
P       21.48362512       7.28734569       1.55549285        3       0.00055459      -0.00399369       0.00769300
P       19.80009124       9.58279338       3.64933001        0      -0.00096545      -0.00183397       0.00572842
P       21.41617955      11.12084842       3.64932995        1       0.00096596       0.00183397       0.00572867
P       19.73264577      13.41629621       1.55549309        2      -0.00055459       0.00399369       0.00769274
P       21.41241717      11.92638485       1.52960860        3      -0.00143673      -0.00163754       0.00733999
P       19.73372095      14.19882535       3.69179238        0      -0.00269477      -0.00265235       0.00057747
P       21.38969974      15.69510629       3.73293278        1      -0.00016712      -0.00064098      -0.00167507
P       19.75950863      18.04839203       1.62585604        2      -0.00052630       0.00584386       0.00406466
P       21.38279401      16.49738945       1.61225969        3      -0.00138351      -0.00361420       0.00259399
P       23.16658999     -13.49250553       3.75459501        0      -0.00172727      -0.00055639      -0.00196998
P       24.84146636     -12.01873375       3.74584238        1       0.00196149       0.00026662      -0.00508256
P       23.19406923      -9.68661041       1.57230654        2       0.00292694       0.00303056       0.00492109
P       24.83007651     -11.21743383       1.61684995        3      -0.00025197      -0.00781358       0.00388571
P       23.17987412      -8.84620565       3.67887069        0      -0.00398495      -0.00507793       0.00536795
P       24.81188353      -7.32851100       3.65522733        1      -0.00129738       0.00000334       0.00426572
P       23.12870777      -5.04311259       1.51761324        2       0.00299893      -0.00014064       0.00522705
P       24.81959618      -6.51965930       1.53159473        3      -0.00200520      -0.00664990       0.00840005
P       23.12513506      -4.26466332       3.65152766        0      -0.00707722      -0.00629715       0.00204788
P       24.75393836      -2.73699016       3.69441736        1      -0.00341494      -0.00463416       0.00149175
P       23.09510031      -0.44031915       1.58543928        2       0.00159228       0.00299276       0.00541526
P       24.75957978      -1.94792787       1.57101245        3      -0.00394099      -0.00254436       0.00524119
P       23.09697327       0.33057264       3.72610730        0      -0.00242224      -0.00098473      -0.00062683
P       24.76293075       1.81671594       3.74779219        1       0.00318740      -0.00219135      -0.00871167
P       23.12683127       4.14443155       1.59279884        2       0.00352215       0.00583949       0.00356715
P       24.75636208       2.60775397       1.61922294        3      -0.00371473      -0.00590917      -0.00055304
P       23.11740096       4.98675175       3.70477619        0      -0.00486118      -0.00340106       0.00450740
P       24.76866167       6.47966596       3.69923313        1       0.00088009      -0.00021212      -0.00240321
P       23.11252645       8.82661096       1.54361833        2       0.00601407       0.00077262       0.00270969
P       24.76899907       7.32332030       1.58649179        3      -0.00384946      -0.00973702       0.00471489
P       23.09356515       9.65164256       3.65842126        0      -0.00992240      -0.00897829       0.00300691
P       24.72051123      11.17656299       3.67156516        1      -0.00446189      -0.00561503       0.00267986
P       23.05253339      13.46229123       1.54451048        2       0.00663807      -0.00083407       0.00266649
P       24.74023717      11.98116879       1.54912082        3      -0.00723997      -0.00895875       0.00757833
P       23.05501879      14.20663549       3.69063003        0      -0.00526639      -0.00352215      -0.00168330
P       26.47030996      -9.69506832       1.57475972        2       0.00522037       0.00584000       0.00082378
P       26.45198888      -8.83671738       3.67949580        0      -0.00870910      -0.00480591       0.00225897
P       28.09421343      -7.33507596       3.68521598        1       0.00052990      -0.00260684      -0.00097342
P       26.44891709      -4.97569608       1.56338074        2       0.00704251      -0.00107601      -0.00167970
P       28.11293837      -6.47354646       1.58050541        3      -0.00697000      -0.01056801       0.00485810
P       26.43280322      -4.21026896       3.69812560        0      -0.00766112      -0.00533195      -0.00358489
P       28.07435136      -2.69269616       3.71855283        1      -0.00105544      -0.00493703      -0.00324499
P       26.42164120      -0.43069210       1.56244157        2       0.00529107       0.00472260       0.00030082
P       28.10271251      -1.92102904       1.58253409        3      -0.01112825      -0.00448478       0.00479408
P       26.41923974       0.31796532       3.70440413        0       0.00317223       0.00205534       0.00030442
P       28.06145947       1.83139926       3.71562551        1       0.00900118       0.00221218      -0.00502933
P       26.40399784       4.12756545       1.56589311        2       0.00281356       0.01009235       0.00117217
P       28.06661019       2.62674298       1.58702714        3      -0.00957762      -0.00211422       0.00195610
P       26.39100246       4.95146861       3.68484853        0      -0.00005194       0.00409525       0.00282976
P       28.03476687       6.45082248       3.70960789        1       0.01010675       0.00516612      -0.00156349
P       26.39807219       8.85714660       1.61042722        2       0.00488381       0.00484833      -0.00262021
P       28.03157002       7.33238190       1.61547343        3      -0.00618762      -0.00814834       0.00303442
P       26.36725797       9.67151336       3.72662796        0      -0.00728856      -0.00300099      -0.00405386
P       28.02805225      11.16136482       3.72853554        1       0.00215587      -0.00150590      -0.00352061
P       26.39527021      13.50294369       1.60147021        2       0.00310178       0.00283593      -0.00285984
P       28.04850213      11.98817840       1.61059479        3      -0.00909579      -0.00478765       0.00375073
P       26.37618782      14.24009383       3.74070244        0       0.00194273      -0.00030725      -0.00190005
P       29.76546995      -4.96748541       1.66982459        2       0.00090657       0.00681651      -0.00461950
P       29.72865157      -4.19794288       3.79550133        0      -0.00313058      -0.00205277      -0.00578755
P       31.41294865      -2.72394916       3.77059263        1       0.00136166       0.00377489      -0.00284081
P       29.76781818      -0.41245018       1.60974534        2      -0.00195095       0.00502008       0.00178203
P       31.41180463      -1.94176383       1.63799761        3      -0.00391425      -0.00218004       0.00748320
P       29.73658015       0.34876701       3.73642693        0       0.00556490       0.00099964       0.00492289
P       31.38516181       1.85774820       3.71453188        1       0.00573845       0.00927294       0.00291974
P       29.70513333       4.15540006       1.58569489        2      -0.00344296       0.00560963       0.00710242
P       31.36883006       2.64567922       1.58835293        3      -0.00110249      -0.00081555       0.00826533
P       29.67659182       4.93709436       3.71152122        0       0.00403689       0.00091840       0.00631849
P       31.33098214       6.43430178       3.74089575        1       0.00809435       0.00736055       0.00231425
P       29.68584799       8.83009881       1.67931165        2      -0.00340311       0.00819025       0.00368439
P       31.29471454       7.27150390       1.64010102        3       0.00100119      -0.00382015       0.00439479
P       29.64647098       9.61819302       3.80275468        0      -0.00093254      -0.00181237      -0.00299585
P       31.34975115      11.07075129       3.81517799        1       0.00458299       0.00410965      -0.00541731
P       33.03670309      -4.26937520       3.81517800        0      -0.00458325      -0.00410965      -0.00541731
P       34.73998327      -2.81681696       3.80275466        1       0.00093254       0.00181237      -0.00299585
P       33.09173973      -0.47012769       1.64010096        2      -0.00100144       0.00382015       0.00439479
P       34.70060626      -2.02872262       1.67931165        3       0.00340286      -0.00819025       0.00368465
P       33.05547210       0.36707447       3.74089571        0      -0.00809460      -0.00736081       0.00231476
P       34.70986242       1.86428187       3.71152155        1      -0.00403715      -0.00091866       0.00631797
P       33.01762423       4.15569704       1.58835280        2       0.00110249       0.00081530       0.00826558
P       34.68132091       2.64597613       1.58569520        3       0.00344296      -0.00560938       0.00710190
P       33.00129243       4.94362808       3.71453171        0      -0.00573870      -0.00927294       0.00292052
P       34.64987411       6.45260924       3.73642713        1      -0.00556515      -0.00099990       0.00492263
P       32.97464963       8.74314003       1.63799762        2       0.00391425       0.00218004       0.00748320
P       34.61863606       7.21382637       1.60974554        3       0.00195121      -0.00502008       0.00178177
P       32.97350559       9.52532529       3.77059262        0      -0.00136166      -0.00377489      -0.00284055
P       36.35488421      -0.53100569       1.61547352        2       0.00618736       0.00814808       0.00303442
P       36.35168729       0.35055362       3.70960804        0      -0.01010701      -0.00516612      -0.00156323
P       37.99545172       1.84990746       3.68484888        1       0.00005194      -0.00409525       0.00282950
P       36.31984407       4.17463316       1.58702722        2       0.00957762       0.00211422       0.00195635
P       37.98245635       2.67381063       1.56589343        3      -0.00281356      -0.01009235       0.00117217
P       36.32499474       4.96997694       3.71562555        0      -0.00900118      -0.00221218      -0.00502882
P       37.96721448       6.48341086       3.70440432        1      -0.00317223      -0.00205534       0.00030442
P       37.96481301       7.23206823       1.56244174        3      -0.00529107      -0.00472235       0.00030082
P       39.63009214       4.19362206       1.61922314        2       0.00371473       0.00590917      -0.00055279
P       39.62352345       4.98466022       3.74779236        0      -0.00318740       0.00219135      -0.00871141
P        3.29887391       0.34171975      -3.70425926        5       0.00026791      -0.00183037      -0.00242146
P        7.45007800      -3.55508931      -3.72463361        6       0.00022034      -0.00254205      -0.00087880
P        5.39268252      -1.59743210      -1.60709990        7      -0.00875718       0.00605263      -0.00046820
P        6.52464128       1.03901985      -3.69396721        4       0.00707490      -0.00385254      -0.00540883
P        5.22581016      -0.77632928      -3.72027967        5       0.00710113      -0.00009924       0.00744617
P        3.13304405       1.12179597      -1.57310654        7       0.00548236      -0.00515326      -0.00271946
P        4.44436678       2.94189906      -1.59174496        5      -0.00780947       0.00110712      -0.00177792
P        4.26909937       3.68878210      -3.72680145        6       0.00044120       0.00587754       0.00556824
P        9.56256691      -5.50132618      -1.65292355        7      -0.00493112       0.00434208      -0.00241427
P       10.66587158      -2.81349238      -3.75545929        4       0.00035867       0.00508127      -0.00169950
P        9.39032164      -4.65285213      -3.74886061        5       0.01112953      -0.00327559       0.00193604
P        7.30958440      -2.75226588      -1.60677018        6       0.00186379      -0.00807738      -0.00279993
P        8.59998849      -0.92273506      -1.59655743        7      -0.00516046       0.00189927      -0.00506276
P        9.76964152       1.70105586      -3.71499901        4      -0.00083432       0.00381372      -0.00592588
P        8.44143808      -0.09891044      -3.70504174        5       0.01345587      -0.00701860      -0.00147170
P        6.38020975       1.79903621      -1.56405561        7       0.00218672      -0.00929197      -0.00213710
P        7.70550824       3.61259044      -1.59220938        4      -0.00960693      -0.00210805      -0.00552993
P        8.84220942       6.17174090      -3.80132657        5      -0.00304573       0.00252688       0.00230062
P        7.53024010       4.35659853      -3.73253916        6       0.00586957      -0.00289840       0.00291615
P       14.89087057      -6.57618083      -3.72853568        7      -0.00179437      -0.00192344       0.00352087
P       11.52250099      -6.56294342      -1.70059571        4       0.00029311      -0.00659745      -0.00246929
P       12.74519310      -4.68485373      -1.68653214        5       0.00040701       0.00663525       0.00067954
P       13.93191124      -2.08947334      -3.73253919        6      -0.00586931       0.00289866       0.00291589
P       12.61994192      -3.90461571      -3.80132669        7       0.00304599      -0.00252662       0.00230088
P       10.52882082      -2.05065690      -1.62411634        4      -0.00237081      -0.00476451      -0.00970000
P       11.82352742      -0.21452612      -1.59729403        5       0.00369725       0.00272048      -0.00670544
P       13.02071332       2.36603554      -3.70504175        6      -0.01345587       0.00701885      -0.00147196
P       11.69250988       0.56606926      -3.71499906        7       0.00083432      -0.00381372      -0.00592562
P        9.63862402       2.48165125      -1.59729399        4      -0.00369725      -0.00272023      -0.00670544
P       10.93333058       4.31778206      -1.62411634        5       0.00237081       0.00476425      -0.00970000
P       12.07182975       6.91997736      -3.74886054        5      -0.01112953       0.00327533       0.00193553
P       10.79627978       5.08061762      -3.75545927        6      -0.00035867      -0.00508153      -0.00169924
P        8.71695831       6.95197907      -1.68653208        7      -0.00040701      -0.00663525       0.00067954
P        9.93965047       8.83006874      -1.70059581        4      -0.00029336       0.00659745      -0.00246929
P       19.05649940     -10.47354903      -3.69923402        5      -0.00081633      -0.00039132       0.00240398
P       16.96631008      -8.48898290      -1.61042784        6      -0.00578910       0.00372141       0.00261995
P       18.12223637      -5.87025412      -3.67156588        7       0.00553687      -0.00455959      -0.00267935
P       16.82629342      -7.68615088      -3.72662839        4       0.00775342      -0.00141179       0.00405437
P       14.69812094      -5.77188780      -1.61059512        5       0.00989592      -0.00278168      -0.00375098
P       15.99837602      -3.94513495      -1.60147129        6      -0.00362577       0.00212553       0.00286061
P       17.19305204      -1.42165681      -3.72680162        7      -0.00044120      -0.00587728       0.00556850
P       15.86302008      -3.22026650      -3.74070326        4      -0.00183680      -0.00070602       0.00190030
P       13.75664322      -1.34546530      -1.59220938        5       0.00960667       0.00210805      -0.00552993
P       15.08194170       0.46808895      -1.56405569        6      -0.00218672       0.00929197      -0.00213684
P       16.23634115       3.04345443      -3.72027977        7      -0.00710087       0.00009924       0.00744617
P       14.93751012       1.22810524      -3.69396730        4      -0.00707490       0.00385280      -0.00540883
P       12.86216290       3.18986022      -1.59655746        5       0.00516046      -0.00189927      -0.00506276
P       14.15256698       5.01939104      -1.60677030        7      -0.00186379       0.00807712      -0.00279967
P       15.27467572       7.66056707      -3.68521495        5       0.00002623      -0.00266006       0.00097316
P       14.01207332       5.82221439      -3.72463372        6      -0.00022034       0.00254231      -0.00087855
P       11.89958451       7.76845146      -1.65292352        7       0.00493086      -0.00434208      -0.00241427
P       13.14563052       9.62671701      -1.66982355        4      -0.00231116       0.00647738       0.00461847
P       14.32414036      12.20463484      -3.71855252        5       0.00206305      -0.00460845       0.00324602
P       13.02085161      10.38696726      -3.79550060        6       0.00348976      -0.00135266       0.00578832
P       21.15000779     -12.41420610      -1.59279871        7      -0.00466578       0.00497534      -0.00356689
P       22.26482942      -9.76236730      -3.69179322        4      -0.00318971       0.00203117      -0.00057696
P       20.98323886     -11.58850637      -3.70477609        5       0.00546488      -0.00230936      -0.00450869
P       18.87989971      -9.64858499      -1.58649283        6       0.00579887      -0.00871733      -0.00471489
P       20.18572137      -7.83237630      -1.54361940        7      -0.00604209      -0.00050034      -0.00270891
P       21.36527959      -5.23434534      -3.64933100        4      -0.00132746       0.00159254      -0.00572790
P       20.03188526      -7.02159119      -3.65842206        5       0.01157896      -0.00670672      -0.00300613
P       17.93483481      -5.08752720      -1.54912185        6       0.00895207      -0.00724871      -0.00757730
P       19.27582971      -3.28647196      -1.54451190        7      -0.00631643      -0.00220266      -0.00266598
P       20.43544815      -0.75550965      -3.73293231        4       0.00029722      -0.00059213       0.00167379
P       19.11787913      -2.55907408      -3.69063096        5       0.00588526      -0.00234433       0.00168382
P       17.01778469      -0.67477388      -1.59174508        6       0.00780921      -0.00110712      -0.00177817
P       18.32910735       1.14532924      -1.57310668        7      -0.00548211       0.00515352      -0.00271971
P       19.43421628       3.75989734      -3.74584154        4      -0.00197384      -0.00014835       0.00508179
P       18.16327743       1.92540545      -3.70425941        5      -0.00026791       0.00183037      -0.00242121
P       16.06946887       3.86455726      -1.60710001        6       0.00875718      -0.00605263      -0.00046820
P       17.35582536       5.69195342      -1.57475922        7      -0.00632517       0.00462053      -0.00082352
P       18.48319064       8.35278396      -3.65522636        4       0.00126858       0.00027382      -0.00426546
P       17.19440208       6.53518771      -3.67949538        4       0.00952182      -0.00287989      -0.00225769
P       15.07635993       8.49916899      -1.58050406        5       0.00902406      -0.00887905      -0.00485938
P       16.39070035      10.31163472      -1.56337948        6      -0.00666199      -0.00252379       0.00167893
P       17.58052424      12.85507146      -3.69441684        7       0.00430788      -0.00381757      -0.00149124