844
Lattice="22.842800432709346 -50.25299068976557 0.0 6.717801808698728 55.68941059599074 0.0 0.0 0.0 27.757515244363482" Properties=species:S:1:pos:R:3:atom_types:I:1:forces:R:3 energy=-158960.9393523325 free_energy=-158960.9393523325 pbc="T T T"
P        1.60160976      -2.67604357       3.71125270        1      -0.06967612       0.00747908       0.14468857
P        1.64514350      -1.86835319       1.59744781        3       0.04734147      -0.04174623      -0.02233723
P        1.63458259       1.95189867       3.71374644        1      -0.05273153       0.00902020       0.14296028
P        1.68064754       2.75364934       1.59777631        3       0.06694767      -0.04141276      -0.02112598
P        1.66640629       6.58011480       3.70301601        1      -0.03578461       0.01210835       0.12853613
P        1.71306640       7.37693249       1.58510448        3       0.08416609      -0.03703546      -0.02287485
P        1.69201684      11.20844582       3.68130654        1      -0.02224827       0.01567267       0.10757753
P        1.73747026      12.00242342       1.56220835        3       0.09420573      -0.03139420      -0.02988059
P        4.85454027      -7.21394738       3.69423130        1      -0.08531126       0.00754002       0.13057939
P        3.22386524      -4.92954399       1.59067641        2      -0.07899894       0.03879280      -0.02183278
P        4.89215548      -6.40035874       1.58252399        3       0.02801268      -0.03724140      -0.02779260
P        3.27050526      -4.13127073       3.70799884        0       0.04125952      -0.01095727       0.13443887
P        4.88262036      -2.58620365       3.71017493        1      -0.07145301       0.00741326       0.14398281
P        3.25783665      -0.30684723       1.59914707        2      -0.06043841       0.04206453      -0.02125480
P        4.92571531      -1.77785468       1.59660328        3       0.04521696      -0.04148706      -0.02264396
P        3.30331464       0.49683953       3.71439538        0       0.05850134      -0.00831186       0.14513286
P        4.91538469       2.04171900       3.71412989        1      -0.05466011       0.00876309       0.14385219
P        3.29335330       4.31509118       1.59445500        2      -0.04106489       0.04080983      -0.02339704
P        4.96127875       2.84410467       1.59839866        3       0.06479771      -0.04168632      -0.02113961
P        3.33546508       5.12472874       3.70757101        0       0.07490241      -0.00733819       0.14206399
P        4.94760213       6.66989995       3.70482340        1      -0.03757564       0.01171729       0.13059893
P        3.32581368       8.93790991       1.57802086        2      -0.02486025       0.03603864      -0.02961011
P        4.99427579       7.46717814       1.58709960        3       0.08252470      -0.03764172      -0.02246553
P        3.36189314       9.75239039       3.68940242        0       0.08761343      -0.00769814       0.12620671
P        4.97411750      11.29825123       3.68410788        1      -0.02344229       0.01530063       0.10999616
P        3.35016091      13.56257226       1.55378736        2      -0.01537957       0.03090543      -0.04057098
P        5.01981767      12.09241792       1.56509014        3       0.09357787      -0.03199584      -0.02879764
P        3.37887051      14.37917934       3.66432547        0       0.09245070      -0.00891427       0.10377795
P        4.99105819      15.92590504       3.65741509        1      -0.01676565       0.01810082       0.08921959
P        3.36187698      18.18898343       1.52793824        2      -0.01618664       0.02725729      -0.05336967
P        5.03328161      16.71962615       1.53820444        3       0.09400236      -0.02732491      -0.04060569
P        3.38476548      19.00415228       3.63887702        0       0.08626180      -0.01115653       0.08289468
P        4.99676562      20.55163387       3.63253043        1      -0.02112393       0.01918454       0.07353972
P        3.35960906      22.81641184       1.50772014        2      -0.02845954       0.02512842      -0.06296195
P        5.03274842      21.34778697       1.51434487        3       0.08242468      -0.02468619      -0.05383633
P        3.38096030      23.62701844       3.62024601        0       0.06975814      -0.01423054       0.06925626
P        4.99275422      25.17495977       3.61688967        1      -0.03639139       0.01833479       0.06543843
P        3.34716320      27.44426170       1.49919829        2      -0.04912941       0.02408070      -0.06541144
P        5.02125818      25.97602113       1.50071745        3       0.06195022      -0.02392360      -0.06322137
P        4.98379076      29.79675763       3.61503024        1      -0.05786062       0.01594110       0.06551685
P        5.00653916      30.60401825       1.50126943        3       0.03926614      -0.02443216      -0.06534073
P        4.97641499      34.41878337       3.62726280        1      -0.07813068       0.01281592       0.07423520
P        4.99780999      35.23172301       1.51556629        3       0.02168700      -0.02591723      -0.05940354
P        4.97653170      39.04254505       3.64976410        1      -0.09043624       0.01002267       0.09151919
P        5.00161345      39.85879629       1.53916373        3       0.01439124      -0.02866600      -0.04776184
P        8.11113738     -16.37621272       3.64149478        1      -0.08751264       0.01085545       0.08492045
P        6.46330244     -14.09126171       1.54119204        2      -0.09455746       0.02774812      -0.03912371
P        8.13449962     -15.56071035       1.53066379        3       0.01551764      -0.02757971      -0.05200802
P        6.50605731     -13.29763391       3.66044173        0       0.01700373      -0.01786197       0.09135052
P        8.11825761     -11.75100364       3.66726293        1      -0.09242756       0.00873352       0.10633671
P        6.47827769      -9.46422847       1.56790975        2      -0.09281580       0.03260827      -0.02779234
P        8.14776861     -10.93446184       1.55668942        3       0.01597863      -0.03141682      -0.03918207
P        6.52419306      -8.66983916       3.68683262        0       0.02473067      -0.01491574       0.11241737
P        8.13641178      -7.12406869       3.69186424        1      -0.08650914       0.00761406       0.12844074
P        6.50489769      -4.83924281       1.58895887        2      -0.08080052       0.03823128      -0.02211971
P        8.17326981      -6.31001790       1.58032514        3       0.02639752      -0.03664413      -0.02866934
P        6.55156429      -4.04147883       3.70648594        0       0.03940473      -0.01133111       0.13256891
P        8.16369032      -2.49636246       3.70894617        1      -0.07319854       0.00736647       0.14311094
P        6.53841189      -0.21636531       1.59885566        2      -0.06262487       0.04190435      -0.02118229
P        8.20631129      -1.68736365       1.59560453        3       0.04312229      -0.04117287      -0.02299492
P        6.58411069       0.58666620       3.71434605        0       0.05658561      -0.00852552       0.14458033
P        8.19617999       2.13154269       3.71434613        1      -0.05658587       0.00852655       0.14457904
P        6.57397951       4.40557286       1.59560466        2      -0.04312306       0.04117236      -0.02299389
P        8.24187879       2.93457440       1.59885567        3       0.06262487      -0.04190281      -0.02118126
P        6.61660044       5.21457174       3.70894645        0       0.07319905      -0.00736621       0.14310863
P        8.22872649       6.75968820       3.70648587        1      -0.03940498       0.01133059       0.13256891
P        6.60702103       9.02822737       1.58032498        2      -0.02639700       0.03664182      -0.02866651
P        8.27539321       7.55745201       1.58895874        3       0.08079923      -0.03822896      -0.02212049
P        6.64387904       9.84227798       3.69186456        0       0.08650991      -0.00761355       0.12843637
P        8.25609775      11.38804861       3.68683274        1      -0.02473144       0.01491600       0.11241609
P        6.63252226      13.65267095       1.55668905        2      -0.01597915       0.03141734      -0.03918104
P        8.30201318      12.18243766       1.56790954        3       0.09281605      -0.03260930      -0.02779054
P        6.66203329      14.46921272       3.66726272        0       0.09242782      -0.00873352       0.10633517
P        8.27423358      16.01584304       3.66044141        1      -0.01700502       0.01786222       0.09135104
P        6.64579108      18.27891940       1.53066369        2      -0.01551764       0.02757997      -0.05201059
P        8.31698827      16.80947074       1.54119171        3       0.09455746      -0.02774812      -0.03912293
P        6.66915329      19.09442176       3.64149449        0       0.08751238      -0.01085545       0.08492225
P        8.28117861      20.64183166       3.63495751        1      -0.02005640       0.01916372       0.07493197
P        6.64498872      22.90627193       1.50947775        2      -0.02658932       0.02530505      -0.06220038
P        8.31796065      21.43757866       1.51660186        3       0.08424759      -0.02487902      -0.05247082
P        6.66625180      23.71749841       3.62178030        0       0.07197623      -0.01387573       0.07033587
P        8.27806373      25.26540596       3.61799572        1      -0.03426715       0.01851631       0.06593980
P        6.63332682      27.53408958       1.49944531        2      -0.04660099       0.02415037      -0.06554848
P        8.30737315      26.06582978       1.50156700        3       0.06447375      -0.02393491      -0.06249786
P        6.65760821      28.33924415       3.61400805        0       0.05045096      -0.01686772       0.06456143
P        8.26934059      29.88729423       3.61450845        1      -0.05539030       0.01626068       0.06509185
P        6.61864474      32.16217239       1.50379282        2      -0.06939459       0.02400819      -0.06078242
P        8.29254747      30.69385559       1.50048327        3       0.04165778      -0.02432726      -0.06551274
P        6.64961088      32.96137910       3.62071549        0       0.03029634      -0.01882048       0.06724463
P        8.26146414      34.50920549       3.62529541        1      -0.07617227       0.01316790       0.07282753
P        6.61013781      36.79044339       1.52146968        2      -0.08752447       0.02533257      -0.04961175
P        8.28274924      35.32160092       1.51340848        3       0.02319572      -0.02569946      -0.06041810
P        6.64845427      37.58547514       3.64012653        0       0.01835331      -0.01904133       0.07799056
P        8.26052810      39.13273140       3.64694816        1      -0.08960346       0.01028750       0.08924093
P        6.61420346      41.41840801       1.54723571        2      -0.09520615       0.02867474      -0.03624356
P        8.28499041      39.94877612       1.53628676        3       0.01461929      -0.02828291      -0.04919883
P        6.65791055      42.21195794       3.66651767        0       0.01788794      -0.01732512       0.09578182
P        8.27012970      43.75839422       3.67308092        1      -0.09196990       0.00840956       0.11147609
P        6.63209995      46.04505266       1.57332087        2      -0.09090984       0.03386657      -0.02600028
P        8.30128255      44.57467108       1.56238998        3       0.01755266      -0.03249463      -0.03650247
P        6.67835693      46.83998423       3.69201492        0       0.02755760      -0.01412513       0.11721685
P        8.29056006      48.38558186       3.69649546        1      -0.08403008       0.00747497       0.13261442
P        6.66069153      50.66952847       1.59224752        2      -0.07712512       0.03932605      -0.02160627
P        8.32890809      49.19867833       1.58461030        3       0.02969881      -0.03782658      -0.02697987
P        6.70728565      51.46833341       3.70935788        0       0.04313951      -0.01059449       0.13619596
P        6.69506132      55.29206110       1.59927296        2      -0.05824217       0.04216326      -0.02135507
P       11.43312718     -24.72605124       1.49919819        3       0.04912992      -0.02408172      -0.06541041
P       11.39933017     -20.90880816       3.62024575        1      -0.06975789       0.01423131       0.06925626
P        9.74754205     -18.62957717       1.51434442        2      -0.08242443       0.02468593      -0.05383530
P       11.42068148     -20.09820198       1.50771964        3       0.02845928      -0.02512842      -0.06296092
P        9.78352512     -17.83342476       3.63253026        0       0.02112341      -0.01918429       0.07353946
P       11.39552520     -16.28594304       3.63887714        1      -0.08626205       0.01115627       0.08289314
P        9.74700909     -14.00141703       1.53820461        2      -0.09400236       0.02732517      -0.04060646
P       11.41841371     -15.47077429       1.52793817        3       0.01618664      -0.02725729      -0.05336762
P        9.78923274     -13.20769598       3.65741528        0       0.01676488      -0.01810082       0.08921959
P       11.40142038     -11.66097025       3.66432568        1      -0.09245070       0.00891401       0.10377847
P        9.76047316      -9.37420880       1.56509039        2      -0.09357736       0.03199455      -0.02879944
P       11.43012994     -10.84436320       1.55378764        3       0.01537880      -0.03090440      -0.04057149
P        9.80617337      -8.58004191       3.68410783        0       0.02344126      -0.01530038       0.10999745
P       11.41839769      -7.03418118       3.68940221        1      -0.08761343       0.00769865       0.12621083
P        9.78601509      -4.74896893       1.58709977        2      -0.08252521       0.03764378      -0.02246553
P       11.45447710      -6.21970049       1.57802114        3       0.02486077      -0.03604095      -0.02961345
P        9.83268872      -3.95169054       3.70482339        0       0.03757513      -0.01171806       0.13059996
P       11.44482574      -2.40651946       3.70757071        1      -0.07490215       0.00733844       0.14206579
P        9.81901198      -0.12589561       1.59839871        2      -0.06479771       0.04168838      -0.02113961
P       11.48693748      -1.59688204       1.59445482        3       0.04106437      -0.04081009      -0.02339755
P        9.86490600       0.67648991       3.71413001        0       0.05465985      -0.00876283       0.14385245
P       11.47697606       2.22136933       3.71439552        1      -0.05850160       0.00831340       0.14513209
P        9.85457537       4.49606384       1.59660347        2      -0.04521671       0.04148629      -0.02264319
P       11.52245401       3.02505624       1.59914717        3       0.06043764      -0.04206299      -0.02125454
P        9.89767030       5.30441288       3.71017523        0       0.07145327      -0.00741326       0.14398075
P       11.50978545       6.84947991       3.70799886        1      -0.04125926       0.01095701       0.13443887
P        9.88813531       9.11856816       1.58252391        2      -0.02801165       0.03723934      -0.02778925
P       11.55642555       7.64775307       1.59067639        3       0.07899817      -0.03878998      -0.02183381
P        9.92575048       9.93215683       3.69423169        0       0.08531177      -0.00754079       0.13057502
P       11.53796203      11.47783930       3.68947155        1      -0.02610338       0.01452545       0.11482598
P        9.91473000      13.74279295       1.55955966        2      -0.01670703       0.03194467      -0.03782273
P       11.58406256      12.27248356       1.57065647        3       0.09192465      -0.03323408      -0.02685749
P        9.94505673      14.55922421       3.67018438        0       0.09226584      -0.00856589       0.10890550
P       11.55726750      16.10575778       3.66347955        1      -0.01738014       0.01760383       0.09353930
P        9.92952596      18.36886873       1.53344977        2      -0.01499493       0.02792192      -0.05061988
P       11.60051688      16.89932836       1.54420603        3       0.09495881      -0.02819909      -0.03766692
P        9.95341381      19.18466349       3.64418789        0       0.08862824      -0.01056569       0.08704187
P       11.56546364      20.73199831       3.63749274        1      -0.01913235       0.01911615       0.07641473
P        9.93022898      22.99613747       1.51137621        2      -0.02483094       0.02549480      -0.06135064
P       11.60302469      21.52737145       1.51897970        3       0.08594941      -0.02509268      -0.05105928
P        9.95147022      23.80796109       3.62346549        0       0.07411668      -0.01351989       0.07152603
P       11.56330191      25.35583037       3.61927237        1      -0.03223341       0.01867804       0.06654066
P        9.91945153      27.62392069       1.49987425        2      -0.04410779       0.02423213      -0.06558267
P       11.59343359      26.15563530       1.50259320        3       0.06695744      -0.02396268      -0.06168308
P        9.94317031      28.42977898       3.61416703        0       0.05291793      -0.01656999       0.06477560
P       11.55490131      29.97783142       3.61416710        1      -0.05291819       0.01656999       0.06477457
P        9.90463799      32.25197503       1.50259309        2      -0.06695744       0.02396268      -0.06168282
P       11.57862007      30.78368972       1.49987421        3       0.04410805      -0.02423342      -0.06558190
P        9.93476970      33.05177973       3.61927227        0       0.03223366      -0.01867932       0.06654144
P       11.54660144      34.59964890       3.62346541        1      -0.07411668       0.01352040       0.07152629
P        9.89504700      36.88023804       1.51897949        2      -0.08594992       0.02509371      -0.05105877
P       11.56784266      35.41147215       1.51137601        3       0.02483171      -0.02549609      -0.06135038
P        9.93260808      37.67561057       3.63749273        0       0.01913209      -0.01911564       0.07641499
P       11.54465795      39.22294540       3.64418827        1      -0.08862824       0.01056595       0.08703956
P        9.89755497      41.50828058       1.54420634        2      -0.09495881       0.02819883      -0.03766743
P       11.56854593      40.03874020       1.53344996        3       0.01499442      -0.02792115      -0.05061731
P        9.94080440      42.30185142       3.66347982        0       0.01737937      -0.01760331       0.09353879
P       11.55301523      43.84838498       3.67018453        1      -0.09226532       0.00856512       0.10890730
P        9.91400938      46.13512570       1.57065660        2      -0.09192414       0.03323331      -0.02685851
P       11.58334198      44.66481628       1.55955996        3       0.01670677      -0.03194467      -0.03782401
P        9.96010987      46.92977011       3.68947141        0       0.02610287      -0.01452468       0.11482727
P       14.70072891     -30.06244586       3.62407932        1      -0.02674564       0.01903439       0.06894542
P       13.05968258     -27.79596724       1.50222971        2      -0.03693750       0.02454632      -0.06506125
P       14.73338267     -29.26436517       1.50669444        3       0.07407708      -0.02415191      -0.05874225
P       13.08202928     -26.98801352       3.61573101        0       0.06031397      -0.01561328       0.06604418
P       14.69377216     -25.43998157       3.61424038        1      -0.04557820       0.01742231       0.06444624
P       13.04518862     -23.16799885       1.50004785        2      -0.05939865       0.02392797      -0.06385540
P       14.71931595     -24.63622658       1.49913480        3       0.05168689      -0.02402310      -0.06517232
P       13.07290910     -22.36628348       3.61595827        0       0.03859226      -0.01813271       0.06503940
P       14.68468689     -20.81831263       3.61886844        1      -0.06747526       0.01458381       0.06828619
P       13.03289478     -18.53978574       1.51221743        2      -0.08048787       0.02451933      -0.05515093
P       14.70619174     -20.00834636       1.50610982        3       0.03043723      -0.02496490      -0.06362992
P       13.06806144     -17.74319548       3.63022043        0       0.02233029      -0.01918351       0.07224337
P       14.68003621     -16.19564611       3.63634579        1      -0.08488009       0.01147175       0.08095684
P       13.03089405     -13.91158377       1.53525499        2      -0.09329325       0.02692485      -0.04210824
P       14.70250608     -15.38085081       1.52528335        3       0.01700322      -0.02695287      -0.05468274
P       13.07255011     -13.11773353       3.65441110        0       0.01666769      -0.01831551       0.08715628
P       14.68472310     -11.57091373       3.66138323        1      -0.09233500       0.00910685       0.10124284
P       13.04282046      -9.28421424       1.56220856        2      -0.09420496       0.03139291      -0.02988213
P       14.71265070     -10.75428673       1.55086518        3       0.01490674      -0.03041358      -0.04198869
P       13.08827398      -8.49023657       3.68130652        0       0.02224750      -0.01567293       0.10757856
P       14.70050230      -6.94428300       3.68685247        1      -0.08861847       0.00779301       0.12389323
P       13.06722433      -4.65872328       1.58510461        2      -0.08416583       0.03703648      -0.02287562
P       14.73578498      -6.12940696       1.57561807        3       0.02340501      -0.03543366      -0.03061875
P       13.11388459      -3.86190543       3.70301584        0       0.03578359      -0.01210861       0.12853767
P       14.72603300      -2.31667431       3.70605246        1      -0.07656411       0.00732713       0.14085763
P       13.09964320      -0.03544029       1.59777638        2      -0.06694793       0.04141482      -0.02112624
P       14.76760080      -1.50641208       1.59315738        3       0.03904452      -0.04040180      -0.02384775
P       13.14570816       0.76631029       3.71374657        0       0.05273075      -0.00902072       0.14296053
P       14.75778050       2.31119885       3.71427876        1      -0.06040910       0.00811929       0.14550850
P       13.13514715       4.58656225       1.59744804        2      -0.04734095       0.04174572      -0.02233646
P       14.80301053       3.11554781       1.59927300        3       0.05824166      -0.04216121      -0.02135507
P       13.17868088       5.39425258       3.71125308        0       0.06967561      -0.00747857       0.14468626
P       14.79078615       6.93927553       3.70935798        1      -0.04313823       0.01059423       0.13619571
P       13.16916380       9.20893099       1.58461031        2      -0.02969804       0.03782401      -0.02697653
P       14.83738039       7.73808051       1.59224758        3       0.07712384      -0.03932322      -0.02160678
P       13.20751177      10.02202756       3.69649593        0       0.08403008      -0.00747625       0.13260979
P       14.81971478      11.56762517       3.69201514        1      -0.02755708       0.01412641       0.11721582
P       13.19678932      13.83293828       1.56238977        2      -0.01755292       0.03249386      -0.03650169
P       14.86597185      12.36255667       1.57332086        3       0.09091009      -0.03386760      -0.02599951
P       13.22794207      14.64921503       3.67308082        0       0.09197067      -0.00841034       0.11147506
P       14.84016121      16.19565127       3.66651748        1      -0.01788845       0.01732564       0.09578233
P       13.21308144      18.45883272       1.53628661        2      -0.01462006       0.02828471      -0.04920140
P       14.88386833      16.98920092       1.54723550        3       0.09520692      -0.02867500      -0.03624330
P       13.23754357      19.27487751       3.64694780        0       0.08960397      -0.01028776       0.08924325
P       14.84961734      20.82213377       3.64012661        1      -0.01835331       0.01904185       0.07799004
P       13.21532241      23.08600868       1.51340865        2      -0.02319572       0.02569818      -0.06041835
P       14.88793384      21.61716610       1.52146989        3       0.08752421      -0.02533179      -0.04961201
P       13.23660746      23.89840446       3.62529549        0       0.07617202      -0.01316739       0.07282727
P       14.84846065      25.44623095       3.62071569        1      -0.03029582       0.01881945       0.06724335
P       13.20552413      27.71375481       1.50048333        2      -0.04165778       0.02432572      -0.06551351
P       14.87942684      26.24543789       1.50379293        3       0.06939459      -0.02400793      -0.06078191
P       13.22873101      28.52031618       3.61450839        0       0.05539030      -0.01626094       0.06509288
P       14.84046335      30.06836626       3.61400815        1      -0.05045070       0.01686772       0.06456014
P       13.19069847      32.34178059       1.50156690        2      -0.06447401       0.02393466      -0.06249735
P       14.86474477      30.87352082       1.49944526        3       0.04660124      -0.02415140      -0.06554770
P       13.22000800      33.14220416       3.61799564        0       0.03426689      -0.01851708       0.06594031
P       14.83181988      34.69011167       3.62178011        1      -0.07197623       0.01387624       0.07033587
P       13.18011098      36.97003096       1.51660155        2      -0.08424759       0.02487928      -0.05247030
P       14.85308291      35.50133776       1.50947737        3       0.02658983      -0.02530557      -0.06219961
P       13.21689320      37.76577727       3.63495742        0       0.02005640      -0.01916346       0.07493223
P       17.97023842     -39.22417789       3.67551527        1      -0.02016285       0.01638204       0.10277728
P       18.01509904     -38.43047637       1.55629930        3       0.09504494      -0.03024466      -0.03225320
P       17.98347946     -34.59704300       3.64851704        1      -0.01690115       0.01867752       0.08324924
P       16.35187247     -32.33373539       1.52022601        2      -0.01906524       0.02640189      -0.05716668
P       18.02389534     -33.80282586       1.52951623        3       0.09142200      -0.02620751      -0.04513623
P       16.37368077     -31.51979884       3.63157828        0       0.08173717      -0.01212866       0.07738583
P       17.98560525     -29.97212634       3.62598733        1      -0.02514616       0.01910792       0.06994686
P       16.34552506     -27.70612331       1.50335987        2      -0.03468470       0.02467462      -0.06468433
P       18.01910312     -29.17457021       1.50838599        3       0.07630546      -0.02425296      -0.05761354
P       16.36752918     -26.89748557       3.61660667        0       0.06274057      -0.01527749       0.06668439
P       17.97928139     -25.34946969       3.61463157        1      -0.04319659       0.01767582       0.06454137
P       16.33137338     -23.07818373       1.49955978        2      -0.05683064       0.02394546      -0.06438994
P       18.00551713     -24.54640497       1.49925543        3       0.05425696      -0.02397914      -0.06483191
P       16.35833621     -22.27579972       3.61520468        0       0.04086563      -0.01791416       0.06473858
P       17.97010003     -20.72780401       3.61765376        1      -0.06512990       0.01493142       0.06742872
P       16.31837955     -18.44999377       1.51022859        2      -0.07844461       0.02437534      -0.05641180
P       17.99182312     -19.91849494       1.50465448        3       0.03251340      -0.02481372      -0.06420405
P       16.35271664     -17.65293532       3.62803652        0       0.02367292      -0.01915780       0.07104704
P       17.96466603     -16.10532219       3.63390958        1      -0.08337059       0.01179442       0.07912107
P       16.31495660     -13.82176060       1.53235510        2      -0.09243322       0.02655333      -0.04362031
P       17.98677518     -15.29093832       1.52270949        3       0.01796276      -0.02666928      -0.05595466
P       16.35600980     -13.02774492       3.65144127        0       0.01670909      -0.01850860       0.08516471
P       17.96816612     -11.48083301       3.65844567        1      -0.09207506       0.00931665       0.09873807
P       16.32532493      -9.19424362       1.55927479        2      -0.09469476       0.03080901      -0.03103270
P       17.99533548     -10.66423162       1.54793130        3       0.01456787      -0.02994332      -0.04342156
P       16.37049911      -8.40042109       3.67843918        0       0.02115118      -0.01603468       0.10516609
P       17.98272976      -6.85437316       3.68422333        1      -0.08952196       0.00789740       0.12150442
P       16.34853282      -4.56850608       1.58297976        2      -0.08571929       0.03641453      -0.02335462
P       18.01720044      -6.03913774       1.57312383        3       0.02203693      -0.03482842      -0.03168473
P       16.39515858      -3.77212223       3.70106915        0       0.03403266      -0.01250919       0.12639415
P       18.00731888      -2.22682663       3.70439600        1      -0.07817799       0.00732970       0.13949443
P       16.38031193       0.05499829       1.59699049        2      -0.06907012       0.04108957      -0.02114475
P       18.04830769      -1.41595599       1.59171657        3       0.03706888      -0.03994954      -0.02435452