216
Lattice="16.493435034519326 4.665295557440486 0.0 6.541122183356416 -23.125110700804104 0.0 0.0 0.0 27.757496417770906" Properties=species:S:1:pos:R:3:atom_types:I:1:forces:R:3 energy=-40682.1380162976 free_energy=-40682.1380162976 pbc="T T T"
P        1.64554691      -2.70643115       3.70797077        1       0.00429966      -0.00554973      -0.00245617
P        1.64832184      -1.88766340       1.58813157        3      -0.00628892      -0.00146964       0.00046357
P        4.90928227     -16.58247511       3.75726323        1       0.00983396      -0.00267009      -0.00362474
P        4.93462417     -15.78035326       1.63265728        3      -0.00341468      -0.00123053      -0.00332367
P        4.89773992     -11.98096609       3.74717143        1       0.00492315       0.00788866       0.00353424
P        3.27467602      -9.66623665       1.57239880        2       0.00247546       0.01596218       0.00638868
P        4.92134280     -11.18762656       1.62084573        3      -0.01490160      -0.00057953      -0.00084924
P        3.27280372      -8.85808972       3.69565505        0      -0.00184374       0.00152724      -0.00314960
P        4.91933707      -7.35408005       3.71849284        1      -0.00066257       0.00321979       0.00339668
P        3.28261106      -5.02025652       1.58541184        2      -0.00603489       0.00312698       0.00642647
P        4.92891979      -6.52893870       1.60428872        3       0.00442538      -0.00140614      -0.00370522
P        3.27518810      -4.22800465       3.71457626        0       0.00277988      -0.00007790      -0.00205225
P        4.92509902      -2.72394809       3.75469141        1       0.00930971      -0.00068597       0.00032602
P        3.29871464      -0.36588460       1.60500031        2      -0.00043580      -0.00644498       0.00297091
P        4.92756823      -1.90396614       1.64484152        3       0.00400295      -0.00258370       0.00058750
P        3.29388701       0.41976292       3.72998508        0      -0.00476451       0.00246697      -0.00289455
P        6.54658093     -22.70663896       3.76064776        0      -0.01424623      -0.00141256      -0.00217310
P        8.18976828     -21.19638842       3.74149456        1      -0.00144599       0.00085823       0.00310821
P        6.54407984     -18.87717210       1.59298416        2      -0.00888907       0.00558315       0.00502136
P        8.19412683     -20.38398975       1.62264664        3      -0.00745800      -0.00292206      -0.00070937
P        6.55777148     -18.08530605       3.72236992        0      -0.00037821      -0.00252405       0.00056281
P        8.19972662     -16.57556390       3.72019511        1      -0.00389831      -0.00017792       0.00435185
P        6.55477112     -14.23137875       1.63304161        2       0.00955730      -0.00431174       0.00110609
P        8.19544976     -15.76081152       1.60339833        3      -0.00657174      -0.01145015       0.00381989
P        6.57744943     -13.45044095       3.75806651        0      -0.00098139      -0.00336763      -0.00382580
P        8.22091994     -11.93288532       3.73506823        1       0.00395487      -0.00811003      -0.00502651
P        6.55459874      -9.65281339       1.61083441        2       0.00434414      -0.00921766       0.00213273
P        8.23324516     -11.13964238       1.61083432        3      -0.00434439       0.00921766       0.00213247
P        6.56692395      -8.85957065       3.73506844        0      -0.00395461       0.00810977      -0.00502702
P        8.21039445      -7.34201504       3.75806671        1       0.00098165       0.00336763      -0.00382529
P        6.59239407      -5.03164444       1.60339872        2       0.00657148       0.01145067       0.00381963
P        8.23307275      -6.56107708       1.63304189        3      -0.00955730       0.00431123       0.00110583
P        6.58811712      -4.21689210       3.72019550        0       0.00389856       0.00017792       0.00435185
P        8.23007230      -2.70714995       3.72237034        1       0.00037821       0.00252405       0.00056281
P        6.59371691      -0.40846636       1.62264687        2       0.00745800       0.00292206      -0.00070962
P        8.24376391      -1.91528400       1.59298455        3       0.00888907      -0.00558341       0.00502111
P        6.59807539       0.40393248       3.74149473        0       0.00144573      -0.00085849       0.00310821
P        8.24126276       1.91418297       3.76064785        1       0.01424674       0.00141282      -0.00217310
P       11.49395664     -21.21221886       3.72998505        1       0.00476451      -0.00246723      -0.00289455
P        9.86027553     -18.88849000       1.64484127        2      -0.00400321       0.00258396       0.00058750
P       11.48912911     -20.42657156       1.60500021        3       0.00043580       0.00644498       0.00297065
P        9.86274472     -18.06850793       3.75469110        0      -0.00930996       0.00068623       0.00032602
P       11.51265563     -16.56445139       3.71457596        1      -0.00277962       0.00007790      -0.00205225
P        9.85892404     -14.26351726       1.60428842        2      -0.00442513       0.00140588      -0.00370496
P       11.50523271     -15.77219957       1.58541154        3       0.00603489      -0.00312620       0.00642647
P        9.86850679     -13.43837596       3.71849257        0       0.00066257      -0.00321954       0.00339643
P       11.51504014     -11.93436630       3.69565483        1       0.00184400      -0.00152724      -0.00314960
P        9.86650110      -9.60482923       1.62084580        2       0.01490160       0.00057953      -0.00084898
P       11.51316781     -11.12621917       1.57239865        3      -0.00247520      -0.01596192       0.00638868
P        9.89010399      -8.81148993       3.74717163        0      -0.00492341      -0.00788866       0.00353372
P       11.52713425      -7.29482444       3.71940049        1       0.00455728      -0.00858157      -0.00334089
P        9.85321969      -5.01210261       1.63265770        2       0.00341494       0.00123053      -0.00332418
P       11.53985458      -6.48119125       1.59710770        3      -0.00766214      -0.00156760       0.00108269
P        9.87856153      -4.20998086       3.75726366        0      -0.00983396       0.00266983      -0.00362448
P       11.51304141      -2.68831153       3.75706264        1      -0.00033373       0.00393996       0.00322391
P        9.87773022      -0.38003364       1.58091120        2       0.00178717       0.01451233       0.00566337
P       11.53006394      -1.89172843       1.63201774        3      -0.01445911      -0.00220652      -0.00079704
P        9.89263056       0.41471407       3.70967138        0       0.00173524       0.00074459      -0.00191984
P       11.53184238       1.92815724       3.72331265        1      -0.00391579       0.00227363       0.00340645
P       11.54468599       2.74493869       1.60563613        3      -0.00290895      -0.00637968      -0.00089089
P       13.13952191     -18.90479278       1.58813142        2       0.00628892       0.00146990       0.00046357
P       14.79718590     -20.40711653       1.63832053        3       0.00453234      -0.00294340      -0.00544045
P       13.14229679     -18.08602491       3.70797057        0      -0.00429940       0.00554998      -0.00245617
P       14.79070603     -16.58542716       3.72641303        1       0.00755544       0.00448143       0.00022703
P       13.16248533     -14.25653937       1.59703026        2      -0.00535921       0.00923515       0.00311618
P       14.80404113     -15.78100928       1.60292304        3      -0.00844582      -0.00035558      -0.00100222
P       13.15829601     -13.44339365       3.71692856        0      -0.01034612      -0.00067594      -0.00151052
P       14.80811136     -11.94361745       3.71559285        1       0.00022497       0.00222580       0.00491749
P       13.16489557      -9.60619394       1.58874382        2      -0.01377828       0.00181006       0.00482210
P       14.80795819     -11.11527956       1.60293656        3       0.00210342      -0.00244820      -0.00167944
P       13.16060563      -8.81352184       3.71764854        0      -0.00042757      -0.00427343       0.00078521
P       14.81123755      -7.31330148       3.72957557        1       0.00193655      -0.00119685       0.00371370
P       13.17364622      -4.94418121       1.62589997        2       0.00338846      -0.00829824       0.00262741
P       14.79498482      -6.49489288       1.61769452        3      -0.00097136      -0.00950511       0.00471206
P       13.18529336      -4.16773655       3.75195606        0      -0.00568317      -0.00451794      -0.00207154
P       14.83758998      -2.66460428       3.71570487        1       0.00176146      -0.00966272      -0.00515275
P       13.17194953      -0.36851656       1.64261911        2      -0.00014372      -0.00625421      -0.00087880
P       14.83219553      -1.87249261       1.59118135        3      -0.00198541       0.00660465       0.00359389
P       13.19312091       0.43714593       3.75999026        0      -0.00873481       0.00307401      -0.00355352
P       14.83658930       1.95370054       3.73725999        1      -0.00269709      -0.00153803      -0.00426520
P       14.84965601       2.74410754       1.61088200        3      -0.00643316      -0.00215510       0.00253022
P       16.43161438     -18.87125989       1.61088188        2       0.00643367       0.00215484       0.00253048
P       16.44468113     -18.08085271       3.73725982        0       0.00269709       0.00153829      -0.00426520
P       18.08814953     -16.56429804       3.75999001        1       0.00873481      -0.00307453      -0.00355378
P       16.44907492     -14.25465964       1.59118093        2       0.00198566      -0.00660465       0.00359415
P       18.10932095     -15.75863571       1.64261873        3       0.00014321       0.00625421      -0.00087777
P       16.44368055     -13.46254788       3.71570444        0      -0.00176121       0.00966272      -0.00515275
P       18.09597718     -11.95941559       3.75195564        1       0.00568291       0.00451769      -0.00207128
P       16.48628569      -9.63225908       1.61769426        2       0.00097188       0.00950460       0.00471257
P       18.10762431     -11.18297085       1.62589958        3      -0.00338871       0.00829849       0.00262741
P       16.47003309      -8.81385075       3.72957544        0      -0.00193655       0.00119685       0.00371319
P       18.12066496      -7.31363038       3.71764849        1       0.00042757       0.00427369       0.00078547
P       16.47331231      -5.01187240       1.60293680        2      -0.00210368       0.00244820      -0.00167944
P       18.11637495      -6.52095794       1.58874389        3       0.01377828      -0.00181083       0.00482185
P       16.47315917      -4.18353471       3.71559315        0      -0.00022497      -0.00222580       0.00491749
P       18.12297453      -2.68375850       3.71692887        1       0.01034612       0.00067594      -0.00151052
P       16.47722932      -0.34614297       1.60292337        2       0.00844582       0.00035558      -0.00100273
P       18.11878517      -1.87061279       1.59703060        3       0.00535895      -0.00923540       0.00311566
P       16.49056439       0.45827500       3.72641330        0      -0.00755544      -0.00448143       0.00022703
P       16.48408448       4.27996419       1.63832053        2      -0.00453208       0.00294340      -0.00544071
P       19.73658441     -18.87209108       1.60563606        2       0.00290869       0.00637994      -0.00089089
P       19.74942808     -18.05530940       3.72331250        0       0.00391528      -0.00227311       0.00340671
P       21.38863984     -16.54186620       3.70967110        1      -0.00173524      -0.00074459      -0.00191959
P       19.75120651     -14.23542381       1.63201737        2       0.01445937       0.00220652      -0.00079704
P       21.40354025     -15.74711865       1.58091089        3      -0.00178743      -0.01451182       0.00566311
P       19.76822911     -13.43884062       3.75706224        0       0.00033373      -0.00393970       0.00322391
P       19.74141595      -9.64596076       1.59710734        2       0.00766214       0.00156760       0.00108321
P       19.75413635      -8.83232774       3.71940023        0      -0.00455702       0.00858183      -0.00334141
P        6.95645928     -20.65372354      -1.58813181        6      -0.00612822      -0.00204248      -0.00046306
P        6.52521879     -19.95772073      -3.70797086        5       0.00075616       0.00697926       0.00245566
P        9.56685916     -21.75731458      -3.72998512        6      -0.00276625      -0.00459739       0.00289352
P        9.15944333     -21.08554234      -1.60500065        7      -0.00374713       0.00526176      -0.00296860
P        9.74130188     -18.92214246      -1.64484192        6       0.00205585       0.00429966      -0.00058415
P        7.11639527     -17.80797034      -3.71457613        6       0.00232736       0.00152286       0.00205071
P        9.30968590     -18.22494508      -3.75469151        4       0.00757036       0.00546205      -0.00032679
P        6.70773098     -17.12921306      -1.58541190        5      -0.00350287      -0.00582355      -0.00642570
P        7.31985793     -14.98171343      -1.60428871        6       0.00303364       0.00351598       0.00370779
P        4.68909092     -13.86514331      -3.69565457        7      -0.00077030      -0.00226746       0.00314934
P        6.87948006     -14.28384725      -3.71849243        4       0.00111997      -0.00308918      -0.00339797
P        4.26737205     -13.17575343      -1.57239850        5       0.01047030      -0.01229990      -0.00638791
P        4.87314779     -11.01724123      -1.62084545        6      -0.01299795      -0.00731222       0.00085181
P        4.43748492     -10.35380896      -3.74717087        7       0.00832626      -0.00414179      -0.00353475
P        2.47875671      -7.09803159      -1.63265759        4      -0.00355455      -0.00073791       0.00332701
P        2.03701210      -6.42802873      -3.75726314        5       0.00697823       0.00742483       0.00362268
P       12.37319578     -20.01307097      -3.74149441        6       0.00078264       0.00148893      -0.00310975
P       14.56400359     -20.43884386      -3.76064791        7       0.01287608       0.00625935       0.00217310
P       11.94394231     -19.32332301      -1.62264670        5       0.00788454       0.00141925       0.00071040
P       12.56023066     -17.17545349      -1.59298435        6       0.00464624       0.00941204      -0.00502111
P        9.94429039     -16.08209928      -3.72019519        7       0.00341442       0.00189028      -0.00435262
P       12.13378217     -16.50808478      -3.72237002        6       0.00164473      -0.00195172      -0.00056230
P        9.52116028     -15.38582323      -1.60339859        6       0.01159516      -0.00631232      -0.00381680
P       10.11762223     -13.22359666      -1.63304169        7      -0.00588397      -0.00867979      -0.00110172
P        7.49436739     -12.13839675      -3.73506779        4       0.00087803      -0.00897958       0.00502574
P        9.68924270     -12.57024403      -3.75806597        5       0.00260067      -0.00235462       0.00382374
P        7.06836165     -11.46913943      -1.61083416        6      -0.00112769       0.01012475      -0.00213144
P        7.71948218      -9.32331661      -1.61083415        7       0.00112743      -0.01012500      -0.00213144
P        5.09860114      -8.22221203      -3.75806597        4      -0.00260041       0.00235462       0.00382374
P        7.29347645      -8.65405932      -3.73506778        5      -0.00087803       0.00897958       0.00502548
P        4.67022158      -7.56885936      -1.63304170        6       0.00588423       0.00867902      -0.00110146
P        5.26668357      -5.40663286      -1.60339863        7      -0.01159542       0.00631283      -0.00381629
P        2.65406167      -4.28437128      -3.72237012        4      -0.00164473       0.00195172      -0.00056230
P        4.84355344      -4.71035675      -3.72019519        5      -0.00341417      -0.00189028      -0.00435262
P        2.22761317      -3.61700252      -1.59298451        6      -0.00464624      -0.00941229      -0.00502059
P        2.84390148      -1.46913301      -1.62264675        7      -0.00788480      -0.00141899       0.00071040
P        0.22384016      -0.35361212      -3.76064796        4      -0.01287608      -0.00625884       0.00217335
P        2.41464797      -0.77938499      -3.74149448        5      -0.00078264      -0.00148918      -0.00310924
P       17.81313682     -19.41615436      -1.60563610        6      -0.00582021       0.00391193       0.00089114
P       15.18526613     -18.29654240      -3.70967110        7       0.00186765       0.00027434       0.00191933
P       17.37435969     -18.72711742      -3.72331242        4      -0.00214353      -0.00398778      -0.00340800
P       14.75627863     -17.62735228      -1.58091096        5       0.00912459      -0.01142547      -0.00566285
P       15.37196029     -15.47413050      -1.63201757        7      -0.01347361      -0.00569294       0.00079987
P       12.75083177     -14.36442733      -3.75726310        5      -0.00697849      -0.00742483       0.00362268
P       14.94020334     -14.80448820      -3.75706204        6       0.00178049      -0.00353218      -0.00322596
P       12.30908713     -13.69442447      -1.63265757        7       0.00355429       0.00073816       0.00332701
P       12.97630523     -11.55952900      -1.59710761        4      -0.00735001      -0.00267883      -0.00107961
P       10.35035895     -10.43864710      -3.74717077        5      -0.00832626       0.00414205      -0.00353475
P       12.53928197     -10.87310949      -3.71939996        6      -0.00061192       0.00969717       0.00333909
P        9.91469601      -9.77521479      -1.62084538        7       0.01299821       0.00731222       0.00085181
P       10.52047179      -7.61670260      -1.57239848        4      -0.01047056       0.01229990      -0.00638791
P        7.90836381      -6.50860883      -3.71849250        5      -0.00112049       0.00308944      -0.00339746
P       10.09875294      -6.92731276      -3.69565459        6       0.00077056       0.00226746       0.00314934
P        7.46798592      -5.81074263      -1.60428875        7      -0.00303364      -0.00351624       0.00370779
P        8.08011288      -3.66324304      -1.58541192        4       0.00350236       0.00582406      -0.00642570
P        5.47815788      -2.56751095      -3.75469153        5      -0.00756984      -0.00546205      -0.00032653
P        7.67144856      -2.98448567      -3.71457612        6      -0.00232762      -0.00152286       0.00205071
P        5.04654189      -1.87031352      -1.64484192        7      -0.00205560      -0.00429991      -0.00058441
P        5.62840045       0.29308632      -1.60500061        4       0.00374713      -0.00526176      -0.00296860
P        5.22098460       0.96485859      -3.72998509        5       0.00276651       0.00459790       0.00289352
P       20.62799611     -17.68427805      -1.61088194        6      -0.00661005      -0.00153418      -0.00253022
P       18.00849489     -16.58682921      -3.75999000        7      -0.00583023      -0.00719343       0.00355172
P       20.20284426     -17.01782496      -3.73725988        4      -0.00310384      -0.00010259       0.00426443
P       17.56844834     -15.91162609      -1.64261893        5      -0.00339771       0.00525302       0.00087829
P       18.19491289     -13.76083496      -1.59118128        7       0.00176686      -0.00666533      -0.00359312
P       15.58975514     -12.66832186      -3.75195573        5      -0.00720783       0.00087212       0.00206794
P       17.78459386     -13.08325953      -3.71570445        6      -0.00356098       0.00915261       0.00514966
P       15.17312611     -12.01301819      -1.62590028        7      -0.00146039       0.00884048      -0.00262535
P       15.74196734      -9.84279612      -1.61769509        4      -0.00580812       0.00758887      -0.00471026
P       13.13522785      -8.72380288      -3.71764845        5      -0.00260298       0.00341700      -0.00078676
P       15.32712325      -9.13713227      -3.72957571        6       0.00102201       0.00203271      -0.00371782
P       12.72367469      -8.04632831      -1.58874403        7      -0.01078861      -0.00875975      -0.00482236
P       13.33282530      -5.90018545      -1.60293729        4       0.00050831       0.00318765       0.00168202
P       10.70809863      -4.78111821      -3.71692863        5      -0.00916650      -0.00484370       0.00150872
P       12.89906604      -5.19449663      -3.71559320        6       0.00135677      -0.00177843      -0.00492032
P       10.28573553      -4.08625648      -1.59703061        7       0.00027382      -0.01067368      -0.00311541
P       10.88554425      -1.92779785      -1.60292328        4      -0.00738138      -0.00412199       0.00100170
P        8.26262505      -0.83473529      -3.70797085        5      -0.00075642      -0.00697926       0.00245566
P       10.45282471      -1.24955011      -3.72641309        6       0.00878572       0.00013910      -0.00022909
P        7.83138454      -0.13873246      -1.58813178        7       0.00612797       0.00204248      -0.00046306
P        8.45651510       2.00929882      -1.63832065        4       0.00231759       0.00488252       0.00544045
P       22.82475533     -18.13645092      -1.63832068        5      -0.00231734      -0.00488252       0.00544045
P       20.82844577     -14.87760206      -3.72641312        6      -0.00878546      -0.00013910      -0.00022883
P       20.39572627     -14.19935439      -1.60292327        7       0.00738189       0.00412199       0.00100093
P       20.99553497     -12.04089571      -1.59703063        4      -0.00027357       0.01067342      -0.00311541
P       18.38220451     -10.93265556      -3.71559318        5      -0.00135677       0.00177843      -0.00492032
P       20.57317192     -11.34603399      -3.71692865        4       0.00916650       0.00484370       0.00150872
P       17.94844524     -10.22696669      -1.60293729        4      -0.00050831      -0.00318765       0.00168176
P       18.55759580      -8.08082381      -1.58874404        5       0.01078886       0.00875949      -0.00482236
P       15.95414730      -6.99001997      -3.72957573        7      -0.00102227      -0.00203271      -0.00371782
P       18.14604268      -7.40334932      -3.71764847        4       0.00260298      -0.00341725      -0.00078701
P       15.53930319      -6.28435608      -1.61769512        5       0.00580838      -0.00758913      -0.00471000
P       16.10814447      -4.11413402      -1.62590035        6       0.00146013      -0.00884048      -0.00262535
P       13.49667668      -3.04389264      -3.71570448        7       0.00356123      -0.00915287       0.00514966
P       15.69151544      -3.45883037      -3.75195583        4       0.00720732      -0.00087186       0.00206845
P       13.08635768      -2.36631725      -1.59118131        5      -0.00176712       0.00666584      -0.00359286
P       13.71282218      -0.21552607      -1.64261896        6       0.00339771      -0.00525328       0.00087880
P       11.07842619       0.89067279      -3.73725987        7       0.00310409       0.00010259       0.00426469
P       13.27277556       0.45967708      -3.75999001        4       0.00583023       0.00719369       0.00355146
P       10.65327436       1.55712593      -1.61088192        5       0.00660979       0.00153443      -0.00253048
P       18.74198856      -5.25404272      -3.71940007        6       0.00061192      -0.00969692       0.00333935
P       18.30496532      -4.56762319      -1.59710768        7       0.00735001       0.00267858      -0.00107986
P       16.34106721      -1.32266402      -3.75706211        4      -0.00178049       0.00353218      -0.00322596
P       15.90931025      -0.65302166      -1.63201762        4       0.01347335       0.00569268       0.00079987
P       16.52499188       1.50020010      -1.58091108        4      -0.00912459       0.01142547      -0.00566285
P       13.90691074       2.59996530      -3.72331242        5       0.00214353       0.00398778      -0.00340800
P       16.09600430       2.16939032      -3.70967119        7      -0.00186765      -0.00027459       0.00191933
P       13.46813368       3.28900223      -1.60563608        4       0.00582021      -0.00391219       0.00089114
