1014
Lattice="41.082729721665686 0.0 -0.0 -20.541364860832843 35.57867100720553 -0.0 -0.0 0.0 20.000017731290455" Properties=species:S:1:pos:R:3:atom_types:I:1:forces:R:3 energy=-819572.9610477223 free_energy=-819572.9610477223 pbc="T T T"
Mo      -0.82127253       1.63058998      -3.30397172        0      -0.00324165      -0.00190956      -0.00922589
S        1.00656385       1.53450980      -4.86785978        2      -0.00244923       0.00195044      -0.00605726
S        0.99795702       1.51830266      -1.73606988        1      -0.00296165       0.00162005      -0.01103003
S       -1.65346895       3.27512343      -4.85175535        2      -0.00584180      -0.00330490      -0.00572919
S       -1.63388481       3.24548635      -1.71969020        1      -0.00532424      -0.00406003      -0.01083540
Mo       4.64432454       1.32457705      -3.27110965        0      -0.00225280       0.00880706      -0.00818485
S        6.49160126       1.23820472      -4.80704912        2      -0.00172290       0.00842011      -0.00327404
S        6.44109416       1.22226462      -1.67441703        1      -0.00323136       0.00903897      -0.00924029
Mo       2.00031400       3.05494465      -3.28714834        0      -0.00528593       0.00342420      -0.00909836
S        3.83850734       2.96755347      -4.83581936        2      -0.00420118       0.00653909      -0.00425826
S        3.80693115       2.93830667      -1.70364329        1      -0.00607655       0.00551450      -0.00994117
Mo      -0.64754188       4.78691858      -3.27186146        0      -0.00884537      -0.00251274      -0.00882454
S        1.17937014       4.70497908      -4.83646846        2      -0.00755544       0.00206100      -0.00494706
S        1.17403349       4.66362931      -1.70421434        1      -0.00860960       0.00059264      -0.01034843
Mo      -3.30538086       6.51021585      -3.22977220        0      -0.01025613      -0.00667021      -0.00637351
S       -1.48745364       6.43759391      -4.80806387        2      -0.00956219      -0.00201986      -0.00346405
S       -1.46782431       6.38850826      -1.67570292        1      -0.00842576      -0.00427729      -0.00914567
S       -4.16385791       8.15186529      -4.76205942        2      -0.00759555      -0.00593333      -0.00356072
S       -4.12962778       8.10627168      -1.62895077        1      -0.00821185      -0.00440661      -0.00963495
Mo      10.10496292       1.06913285      -3.17643039        0      -0.00086852       0.01291388      -0.00739218
S       11.95194384       1.01197034      -4.71232467        2      -0.00015375       0.00815811      -0.00325270
S       11.90151069       0.99665059      -1.57816020        1      -0.00255053       0.00571556      -0.01000930
Mo       7.45778079       2.76932929      -3.21609166        0      -0.00308841       0.01054435      -0.00606060
S        9.30465491       2.70047053      -4.75009613        2      -0.00343474       0.00925777      -0.00338974
S        9.25213064       2.67645768      -1.61629319        1      -0.00290766       0.00823730      -0.01036052
Mo       4.81300612       4.48839915      -3.24179712        0      -0.00580144       0.00647867      -0.00636862
S        6.65532827       4.41243718      -4.78109305        2      -0.00556670       0.00702888      -0.00229394
S        6.61153408       4.37698689      -1.64797619        1      -0.00531344       0.00715744      -0.00839002
Mo       2.16526116       6.21658936      -3.24318161        0      -0.00901275       0.00089140      -0.00685148
S        3.99931746       6.13970303      -4.79454765        2      -0.00823344       0.00380858      -0.00277859
S        3.97530461       6.09423678      -1.66186626        1      -0.00830132       0.00479382      -0.00897649
Mo      -0.49137410       7.94244608      -3.21882366        0      -0.01107734      -0.00406800      -0.00633057
S        1.33398499       7.87047325      -4.78390311        2      -0.00959407       0.00027716      -0.00264875
S        1.33340983       7.81719305      -1.65109026        1      -0.00901095       0.00062452      -0.00830389
Mo      -3.16295936       9.65618339      -3.17878443        0      -0.01143858      -0.00574693      -0.00759401
S       -1.34239874       9.58971975      -4.75382234        2      -0.00826250      -0.00289609      -0.00366177
S       -1.32442093       9.53753647      -1.62071780        1      -0.00810772      -0.00114928      -0.00972468
Mo      -5.85239096      11.35311787      -3.13533944        0      -0.00996534      -0.00574719      -0.00682345
S       -4.03167833      11.29029827      -4.71509776        2      -0.00628738      -0.00267523      -0.00377412
S       -4.00577978      11.24652051      -1.58136054        1      -0.00578575      -0.00433359      -0.01010058
S       -6.73451934      12.97169525      -4.67787680        2      -0.00456294       0.00037512       0.00045534
S       -6.70839072      12.94178292      -1.54381093        1      -0.00102638      -0.00480899      -0.00653883
Mo      15.56641884       0.89490510      -3.09823352        0      -0.00038901       0.00867079      -0.00135626
S       17.39965349       0.86374385      -4.65139488        2       0.00014270       0.00166993       0.00291743
S       17.37881222       0.85271725      -1.51712358        1      -0.00119582       0.00081453      -0.00402840
Mo      12.91097087       2.55477063      -3.12410332        0      -0.00131820       0.01084157      -0.00420221
S       14.74957914       2.51421787      -4.66810322        2       0.00003265       0.00478457       0.00221501
S       14.71534901       2.49582513      -1.53328964        1      -0.00357358       0.00331544      -0.00534352
Mo      10.26022688       4.23649217      -3.15586027        0      -0.00224200       0.01060117      -0.00564871
S       12.10153017       4.18341739      -4.69420308        2      -0.00140639       0.00754156      -0.00056976
S       12.05792085       4.15746132      -1.55917587        1      -0.00479588       0.00474497      -0.00764338
Mo       7.61253122       5.93971641      -3.18313098        0      -0.00418190       0.00769454      -0.00525662
S        9.45228980       5.87531513      -4.72232010        2      -0.00469458       0.00772231      -0.00186482
S        9.40917759       5.84159853      -1.58781464        1      -0.00499077       0.00550730      -0.00835994
Mo       4.96389477       7.65839598      -3.19597755        0      -0.00714947       0.00323162      -0.00585569
S        6.79853855       7.58690381      -4.74182207        2      -0.00659128       0.00503988      -0.00254616
S        6.76664603       7.54588271      -1.60801502        1      -0.00664862       0.00565463      -0.00887571
Mo       2.30831533       9.38135636      -3.18773636        0      -0.00954419      -0.00080733      -0.00605212
S        4.13585592       9.31017643      -4.74448012        2      -0.00875383       0.00250734      -0.00284981
S        4.12260263       9.26198638      -1.61107157        1      -0.00795602       0.00313700      -0.00864971
Mo      -0.35991758      11.09746826      -3.16299223        0      -0.00977276      -0.00327970      -0.00748294
S        1.46320250      11.02958316      -4.72921789        2      -0.00759272       0.00043143      -0.00407366
S        1.46712590      10.98038659      -1.59561214        1      -0.00793108       0.00081735      -0.00952080
Mo      -3.04538059      12.79913136      -3.13061493        0      -0.00904566      -0.00504245      -0.00560243
S       -1.22258506      12.73606115      -4.70233335        2      -0.00583872       0.00166196      -0.00234459
S       -1.20788977      12.69038126      -1.56846467        1      -0.00526305      -0.00291409      -0.00842936
Mo      -5.74814764      14.48528572      -3.10157765        0      -0.00738498      -0.00391836      -0.00166530
S       -3.92207372      14.42262224      -4.67424920        2      -0.00417007       0.00074691       0.00120816
S       -3.90548040      14.38802236      -1.54030246        1      -0.00128324      -0.00419578      -0.00533710
Mo      -8.46461579      16.15869212      -3.08299594        0      -0.00562789      -0.00222709      -0.00088112
S       -6.63357085      16.09348561      -4.65428710        2      -0.00120585       0.00069471       0.00265955
S       -6.62127479      16.07387272      -1.52036501        1      -0.00018872      -0.00104592      -0.00337097
S       -9.35360909      17.75464935      -4.64524068        2       0.00065075       0.00160977       0.00224354
S       -9.34774658      17.75035621      -1.51138433        1       0.00127835       0.00085026      -0.00387234
Mo      21.03189676       0.77592541      -3.07591738        0       0.00120713       0.00337406      -0.00064175
S       22.85003762       0.74979679      -4.64773851        2       0.00148764      -0.00317557       0.00245103
S       22.86074377       0.74530234      -1.51346311        1       0.00065049      -0.00334012      -0.00389136
Mo      18.37040142       2.41335566      -3.07427407        0       0.00022986       0.00583075       0.00000951
S       20.19526751       2.38875943      -4.63784990        2       0.00032859      -0.00048542       0.00260736
S       20.19244513       2.37675916      -1.50309383        1       0.00035121      -0.00050831      -0.00398675
Mo      15.71008514       4.06069095      -3.08325476        0      -0.00065512       0.00719575       0.00000257
S       17.54033308       4.03016649      -4.63847025        2      -0.00091737       0.00166402       0.00319202
S       17.52387123       4.01236945      -1.50299113        1      -0.00029259       0.00167327      -0.00392145
Mo      13.05271861       5.72571237      -3.10215692        0      -0.00157660       0.00752073      -0.00135163
S       14.88643393       5.68374225      -4.64964475        2      -0.00162417       0.00342060       0.00356638
S       14.85787732       5.66131519      -1.51369728        1      -0.00223429       0.00269323      -0.00390216
Mo      10.39893860       7.41217896      -3.12567678        0      -0.00228185       0.00663885      -0.00322622
S       12.23317567       7.35677068      -4.66906867        2      -0.00192653       0.00456217       0.00233302
S       12.19857169       7.33021070      -1.53320747        1      -0.00408060       0.00309329      -0.00475346
Mo       7.74646503       9.11788049      -3.14402022        0      -0.00383763       0.00413896      -0.00531036
S        9.57811388       9.05149902      -4.68943338        2      -0.00310564       0.00467735      -0.00001980
S        9.54666916       9.02016111      -1.55434865        1      -0.00594105       0.00290612      -0.00684351
Mo       5.09053639      10.83400471      -3.14785735        0      -0.00613234       0.00059804      -0.00589091
S        6.91677465      10.76337528      -4.70086670        2      -0.00641542       0.00356638      -0.00202526
S        6.89760545      10.72713621      -1.56662827        1      -0.00714818       0.00193373      -0.00830132
Mo       2.42577908      12.54869925      -3.13610358        0      -0.00726799      -0.00204711      -0.00596162
S        4.24753110      12.47908867      -4.69735413        2      -0.00691755       0.00261121      -0.00275211
S        4.24329547      12.44075849      -1.56331701        1      -0.00713070       0.00071528      -0.00828409
Mo      -0.25322162      14.25249865      -3.11429276        0      -0.00694609      -0.00341957      -0.00260787
S        1.56767588      14.18769065      -4.68124970        2      -0.00634934       0.00317634      -0.00003882
S        1.57492288      14.14931938      -1.54708111        1      -0.00412328      -0.00141076      -0.00549188
Mo      -2.94884850      15.94067429      -3.09342273        0      -0.00601227      -0.00350647      -0.00046845
S       -1.12392489      15.87908717      -4.66165323        2      -0.00365559       0.00160591       0.00270454
S       -1.11427866      15.84732611      -1.52722583        1      -0.00155937      -0.00103795      -0.00282821
Mo      -5.65904742      17.61544053      -3.08046935        0      -0.00501879      -0.00172418      -0.00032242
S       -3.82873786      17.55328236      -4.64726195        2      -0.00123259       0.00016301       0.00283618
S       -3.82225501      17.53137294      -1.51298245        1      -0.00014475      -0.00079396      -0.00219444
Mo      -8.37844887      19.28222028      -3.07815639        0      -0.00347845       0.00033656      -0.00102638
S       -6.54223162      19.21560874      -4.64235257        2       0.00115134       0.00175272       0.00213376
S       -6.54258904      19.20540379      -1.50836885        1       0.00151104       0.00097368      -0.00274902
Mo     -11.09999074      20.94885213      -3.08741233        0      -0.00146064       0.00206665      -0.00118734
S       -9.25984597      20.87346943      -4.64881488        2       0.00248086       0.00349079       0.00205663
S       -9.26805430      20.87659172      -1.51496674        1       0.00251994       0.00201574      -0.00341263
S      -11.97437912      22.53446474      -4.66802516        2       0.00432614       0.00389651       0.00078444
S      -11.99059859      22.55316559      -1.53408254        1       0.00357280       0.00460356      -0.00560115
Mo      26.49999576       0.65311680      -3.10972025        0       0.00175246      -0.00273437      -0.00271920
S       28.30299352       0.60848863      -4.70086670        2       0.00011801      -0.00733921      -0.00202603
S       28.34396122       0.61000870      -1.56662827        1       0.00190005      -0.00715692      -0.00830235
Mo      23.83865242       2.29860749      -3.08075282        0       0.00073174       0.00052502      -0.00030596
S       25.64969829       2.26773792      -4.66258581        2       0.00053787      -0.00436753       0.00215844
S       25.67763865       2.26067580      -1.52780920        1       0.00132952      -0.00534995      -0.00487121
Mo      21.17271193       3.93710589      -3.06353916        0      -0.00008716       0.00322879      -0.00044480
S       22.99089386       3.91174552      -4.63665850        2       0.00095542      -0.00193810       0.00308198
S       23.00492361       3.89971239      -1.50124511        1       0.00023577      -0.00185942      -0.00403663
Mo      18.50485697       5.57839791      -3.05807926        0      -0.00033244       0.00486633      -0.00072737
S       20.32810441       5.55073280      -4.62326964        2      -0.00032910      -0.00013678       0.00231399
S       20.32832215       5.53549111      -1.48703459        1      -0.00013601       0.00030545      -0.00475166
Mo      15.83832489       7.23160804      -3.06418826        0      -0.00027177       0.00490361      -0.00014398
S       17.66522869       7.19527037      -4.62193445        2      -0.00158457       0.00157557       0.00265106
S       17.65263683       7.17818817      -1.48508727        1      -0.00018229       0.00155655      -0.00434516
Mo      13.17528483       8.90348205      -3.07973808        0      -0.00042526       0.00388597       0.00000797
S       15.00393465       8.85405131      -4.63149851        2      -0.00174424       0.00211885       0.00364788
S       14.98120768       8.83588453      -1.49467598        1      -0.00081041       0.00189285      -0.00346970
Mo      10.51573680      10.59554001      -3.09800757        0      -0.00141848       0.00228160      -0.00117525
S       12.34327739      10.53298333      -4.64766456        2      -0.00255876       0.00192113       0.00348102
S       12.31730078      10.51389630      -1.51164315        1      -0.00290766       0.00184117      -0.00366331
Mo       7.85692416      12.30250278      -3.10972025        0      -0.00324525      -0.00015041      -0.00271817
S        9.68037290      12.23156934      -4.66258581        2      -0.00405232       0.00171698       0.00215767
S        9.66028756      12.21090062      -1.52781331        1      -0.00529827       0.00152338      -0.00487224
Mo       5.19405254      14.01382853      -3.10845901        0      -0.00444184      -0.00195070      -0.00314060
S        7.01313830      13.94141611      -4.66802516        2      -0.00553816       0.00179874       0.00078573
S        7.00504911      13.91801539      -1.53408254        1      -0.00577367       0.00079113      -0.00560063
Mo       2.52151827      15.71799357      -3.09584661        0      -0.00447706      -0.00267240      -0.00059624
S        4.33844718      15.65012079      -4.66144782        2      -0.00628660       0.00178537       0.00141642
S        4.34170093      15.62545061      -1.52727924        1      -0.00367771       0.00024657      -0.00364480
Mo      -0.16461028      17.40763997      -3.08081444        0      -0.00366716      -0.00246183       0.00042500
S        1.65539573      17.34532158      -4.64835886        2      -0.00331647       0.00127064       0.00276856
S        1.66268380      17.32303009      -1.51387394        1      -0.00141848       0.00139302      -0.00181366
Mo      -2.86480145      19.08197484      -3.07106962        0      -0.00348539      -0.00180929      -0.00002520
S       -1.03879736      19.02304166      -4.63694197        2      -0.00146090      -0.00006916       0.00248754
S       -1.03417556      19.00538841      -1.50228039        1      -0.00039569       0.00042295      -0.00158431
Mo      -5.57515649      20.74601437      -3.07102443        0      -0.00247752       0.00030468      -0.00057798
S       -3.74157263      20.68611575      -4.63341707        2       0.00094899       0.00064972       0.00204943
S       -3.74428410      20.67550408      -1.49895269        1       0.00143365       0.00039878      -0.00219418
Mo      -8.29013333      22.40710006      -3.08277409        0      -0.00158868       0.00276908      -0.00070423
S       -6.45042815      22.34112530      -4.64087359        2       0.00196972       0.00203349       0.00198721
S       -6.46266259      22.33943680      -1.50665981        1       0.00213402       0.00075668      -0.00236439
Mo     -11.00212346      24.07363331      -3.10845901        0       0.00053196       0.00482133      -0.00314086
S       -9.15725007      23.99645940      -4.66145193        2       0.00469072       0.00454931       0.00141642
S       -9.18024408      24.00597417      -1.52728334        1       0.00205251       0.00306038      -0.00364531
Mo     -13.70417157      25.75318979      -3.14785735        0       0.00358412       0.00501031      -0.00589091
S      -11.85798764      25.66071257      -4.69735413        2       0.00571916       0.00468481      -0.00275108
S      -11.88905851      25.68354635      -1.56331701        1       0.00418473       0.00581558      -0.00828307
S      -14.54650721      27.34188360      -4.74448012        2       0.00654860       0.00632543      -0.00284827
S      -14.58161240      27.37745714      -1.61107157        1       0.00669387       0.00532064      -0.00864868
Mo      31.96842343       0.46973582      -3.19597755        0       0.00077647      -0.00780638      -0.00585929
S       33.76593664       0.39373277      -4.79455176        2       0.00081915      -0.00903280      -0.00277859
S       33.81731881       0.39567188      -1.66186626        1      -0.00000026      -0.00958456      -0.00897675
Mo      29.31318498       2.14976886      -3.14402022        0      -0.00166505      -0.00539315      -0.00531241
S       31.11301115       2.09432772      -4.74182207        2      -0.00106804      -0.00822804      -0.00254873
S       31.16448370       2.08722041      -1.60801502        1      -0.00157249      -0.00858491      -0.00887596
Mo      26.64885903       3.80919892      -3.09800757        0      -0.00126653      -0.00236953      -0.00117551
S       28.45485172       3.76921310      -4.68943338        2      -0.00249834      -0.00502882      -0.00002134
S       28.49770923       3.75764831      -1.55434865        1       0.00045431      -0.00659925      -0.00684453
Mo      23.97654661       5.45527708      -3.06553167        0      -0.00119299       0.00072145       0.00005399
S       25.78926043       5.42317504      -4.64766456        2      -0.00038567      -0.00317634       0.00348153
S       25.81878248       5.41022165      -1.51164315        1      -0.00014141      -0.00343859      -0.00366279
Mo      21.29931247       7.09709908      -3.04736899        0      -0.00080861       0.00209802      -0.00123182
S       23.11800383       7.06585566      -4.62134697        2       0.00038515      -0.00090091       0.00304393
S       23.13287167       7.05347743      -1.48455320        1      -0.00058287      -0.00022291      -0.00417367
Mo      18.62153603       8.74477125      -3.04264448        0       0.00025197       0.00270094      -0.00143468
S       20.44380570       8.70703676      -4.60921113        2      -0.00022137      -0.00026431       0.00194761
S       20.44489439       8.69638812      -1.47169430        1       0.00019977       0.00010901      -0.00520726
Mo      15.94695584      10.40644031      -3.05008045        0       0.00144907       0.00205071      -0.00047643
S       17.77129608      10.35763814      -4.61003278        2      -0.00032859       0.00064098       0.00245000
S       17.76070084      10.34915866      -1.47245844        1       0.00106701       0.00078856      -0.00477351
Mo      13.27743704      12.08678969      -3.06553167        0       0.00122050       0.00067209       0.00005348
S       15.10151024      12.02501770      -4.62135108        2      -0.00097265       0.00011699       0.00304444
S       15.08335989      12.01833354      -1.48455320        1       0.00009770       0.00061475      -0.00417367
Mo      10.61263042      13.78454582      -3.08075282        0       0.00008767      -0.00089706      -0.00030622
S       12.43352793      13.71215805      -4.63665850        2      -0.00215716       0.00014115       0.00308121
S       12.41609242      13.70602029      -1.50124511        1      -0.00172932       0.00072454      -0.00403740
Mo       7.94912613      15.49145929      -3.08741233        0      -0.00105955      -0.00229857      -0.00118605
S        9.76562778      15.41511525      -4.64773851        2      -0.00349464       0.00029928       0.00244898
S        9.75638417      15.40809011      -1.51346311        1      -0.00321825       0.00110635      -0.00389162
Mo       5.28131637      17.19574347      -3.08277409        0      -0.00160437      -0.00276162      -0.00070320
S        7.09433421      17.12276411      -4.64881488        2      -0.00426263       0.00040212       0.00205611
S        7.09573513      17.11409565      -1.51496674        1      -0.00300639       0.00117422      -0.00341211
Mo       2.60452592      18.88772337      -3.07187895        0      -0.00111097      -0.00196381      -0.00022651
S        4.41859959      18.82196224      -4.64087359        2      -0.00274671       0.00068751       0.00198386
S        4.42617524      18.81221331      -1.50665981        1      -0.00172418       0.00146759      -0.00236464
Mo      -0.08398542      20.56299081      -3.06265998        0      -0.00142773      -0.00150872      -0.00038592
S        1.73530575      20.50505594      -4.63080010        2      -0.00139045       0.00055304       0.00184400
S        1.74196115      20.49621494      -1.49612209        1      -0.00052579       0.00134237      -0.00216204
Mo      -2.78228679      22.22468452      -3.06155897        0      -0.00109915       0.00001388      -0.00062786
S       -0.95531726      22.17006503      -4.62587018        2       0.00044377       0.00001877       0.00169127
S       -0.95577327      22.16420253      -1.49106892        1       0.00074485       0.00011313      -0.00214919
Mo      -5.48644244      23.87927913      -3.07187895        0      -0.00114491       0.00194375      -0.00023268
S       -3.65118241      23.82337786      -4.63080010        2       0.00117345       0.00092688       0.00184631
S       -3.66216383      23.82203446      -1.49612209        1       0.00142491      -0.00021649      -0.00216101
Mo      -8.19000650      25.53602648      -3.09584661        0      -0.00007508       0.00521291      -0.00059752
S       -6.34763505      25.47245096      -4.64835886        2       0.00276034       0.00223660       0.00277216
S       -6.37058797      25.47728640      -1.51387394        1       0.00191573       0.00053145      -0.00181366
Mo     -10.88682478      27.20359092      -3.13610358        0       0.00186045       0.00731659      -0.00596059
S       -9.03836487      27.12723045      -4.68124970        2       0.00592459       0.00390833      -0.00003831
S       -9.07522019      27.14014686      -1.54708111        1       0.00084152       0.00427497      -0.00549265
Mo     -13.57109228      28.88898936      -3.18773636        0       0.00407314       0.00866796      -0.00604903
S      -11.72112874      28.79676274      -4.72921789        2       0.00416982       0.00635885      -0.00407160
S      -11.76569940      28.81796554      -1.59561625        1       0.00467349       0.00646015      -0.00951925
Mo     -16.24033583      30.59526194      -3.24318161        0       0.00527847       0.00735901      -0.00685328
S      -14.39238946      30.48822911      -4.78390311        2       0.00503859       0.00816994      -0.00264901
S      -14.43824189      30.51536425      -1.65109437        1       0.00504528       0.00749168      -0.00830389
S      -17.05647712      32.20487508      -4.83647257        2       0.00556207       0.00551270      -0.00494757
S      -17.08961856      32.23016971      -1.70421844        1       0.00481928       0.00715898      -0.01034972
Mo      37.43692093       0.20492476      -3.28714834        0      -0.00032319      -0.00628943      -0.00909631
S       39.25052625       0.10452679      -4.86785978        2      -0.00046563      -0.00309664      -0.00605752
S       39.26886558       0.10517590      -1.73606988        1       0.00007662      -0.00337457      -0.01103029
Mo      34.78916365       1.92406035      -3.24179712        0      -0.00270814      -0.00826275      -0.00636837
S       36.59350071       1.84054327      -4.83581936        2      -0.00356072      -0.00690727      -0.00425878
S       36.63462041       1.82781994      -1.70364329        1      -0.00173601      -0.00801927      -0.00994014
Mo      32.13252428       3.62285998      -3.18313098        0      -0.00457116      -0.00746957      -0.00525688
S       33.93378424       3.55753844      -4.78109305        2      -0.00330412      -0.00833680      -0.00229548
S       33.98638657       3.53733395      -1.64797619        1      -0.00354041      -0.00817842      -0.00839080
Mo      29.46412704       5.29972965      -3.12567678        0      -0.00460665      -0.00529673      -0.00322802
S       31.26841890       5.24833926      -4.72232010        2      -0.00433797      -0.00792645      -0.00186405
S       31.31917662       5.22785952      -1.58781464        1      -0.00227157      -0.00707645      -0.00836020
Mo      26.78445258       6.95846130      -3.07973808        0      -0.00315192      -0.00231219       0.00000900
S       28.59499313       6.91592835      -4.66906867        2      -0.00298659      -0.00395101       0.00233302
S       28.63529940       6.89924054      -1.53320747        1      -0.00063686      -0.00508256      -0.00475448
Mo      24.09701349       8.60732076      -3.05008045        0      -0.00250040       0.00022857      -0.00047591
S       25.91293177       8.56683373      -4.63149851        2      -0.00096236      -0.00257085       0.00364737
S       25.94002994       8.55623850      -1.49467598        1      -0.00123310      -0.00164936      -0.00346945
Mo      21.40683008      10.25529284      -3.03610000        0      -0.00098010       0.00049957      -0.00168793
S       23.22710723      10.21164655      -4.61003278        2      -0.00039004      -0.00060601       0.00245129
S       23.23974839      10.20671251      -1.47245844        1      -0.00121587       0.00052888      -0.00477300
Mo      18.71923077      11.91222095      -3.03610000        0       0.00092277       0.00059984      -0.00168664
S       20.54134432      11.85959809      -4.60336095        2      -0.00000077      -0.00000000       0.00191162
S       20.54134432      11.85960219      -1.46547027        1      -0.00000051       0.00000000      -0.00572173
Mo      16.03791711      13.58443184      -3.04736899        0       0.00222066      -0.00034864      -0.00122976
S       17.85991563      13.52035100      -4.60921113        2      -0.00011878       0.00032524       0.00194787
S       17.85014616      13.52473453      -1.47169430        1      -0.00000566      -0.00022651      -0.00520648
Mo      13.36458172      15.27406592      -3.06353916        0       0.00283927      -0.00154009      -0.00044377
S       15.18432480      15.19870376      -4.62327375        2       0.00004551       0.00035198       0.00231399
S       15.17101400      15.20613973      -1.48703459        1       0.00033167      -0.00003548      -0.00475166
Mo      10.69732658      16.97660819      -3.07591738        0       0.00231708      -0.00273334      -0.00063866
S       12.51239444      16.89473441      -4.63784990        2      -0.00058544      -0.00004268       0.00260556
S       12.50341376      16.90317692      -1.50309383        1      -0.00061706      -0.00005142      -0.00398701
Mo       8.03169831      18.68170169      -3.07815639        0       0.00144753      -0.00318097      -0.00102407
S        9.84219367      18.60097413      -4.64524068        2      -0.00171878      -0.00024066       0.00224174
S        9.84297835      18.60820058      -1.51138022        1      -0.00137477       0.00068314      -0.00387131
Mo       5.36237260      20.37752693      -3.07102443        0       0.00097471      -0.00229857      -0.00057310