SLAB
PRIMVEC
 90.44562676952948 0.00000000000000 0.00000000000000
 -45.22281338476475 78.32821044361843 0.00000000000000
 0.00000000000000 0.00000000000000 21.33255669733980
PRIMCOORD
 4902 1
 16   -43.40480382475791    78.22988450022605     5.32832442747687
 16   -43.38856644250173    78.23113353079090     2.22297436940680
 42    -0.00000000034758     0.00000000153657     3.76935980443127
 16    -0.82385201435263     1.62360543767453     5.32832442739970
 16    -0.83305239769594     1.63704290775846     2.22297436932999
 16     4.63029597231516     1.33562105952467     5.35693819061042
 16     4.66588455697684     1.35111716408619     2.25140835471949
 42     2.82232771075022     1.43654914475076     3.78441699364520
 16     1.98693364382891     3.05271142896623     5.34295516714650
 16     2.00018618819688     3.07987262148079     2.23750368764670
 42     0.16721472183444     3.16341142241830     3.78426934399198
 16    -0.65990662308707     4.77343236159924     5.35648131984582
 16    -0.67082344872904     4.80995242988402     2.25092086535809
 42    -2.49324693723859     4.88610436938421     3.81171070894763
 16    -3.31999317834071     6.48917841914144     5.39329151528093
 16    -3.34932396897245     6.52884483220645     2.28741419708823
 16    10.09473864046164     1.10000528004427     5.44195096848645
 16    10.14412544543917     1.11501530682378     2.33557795755647
 42     8.29401059574560     1.17527646277286     3.85802572741115
 16     7.44011558905535     2.78815145998794     5.40536970707364
 16     7.48503092508411     2.81260818082496     2.29940575733309
 42     5.63788809883682     2.88309785654281     3.82486696959341
 16     4.79278125407410     4.49407597898145     5.38245356958096
 16     4.82251820352275     4.52921908429717     2.27666380527132
 42     2.98269328703013     4.60399711583696     3.81176713968574
 16     2.14473208633467     6.21024780193940     5.38153969491563
 16     2.15309558852585     6.25440768234007     2.27569313869687
 42     0.32259438717184     6.32757974039620     3.82372242677250
 16    -0.51379926841642     7.92772517630474     5.40329312963600
 16    -0.52564821527372     7.97559039571472     2.29720870440984
 42    -2.34836720928547     8.04352692488953     3.85676439393250
 16    -3.19094886503065     9.63795514899739     5.44024543919005
 16    -3.21576715612510     9.68211889557413     2.33378242091499
 42    -5.03488353223774     9.74396446098281     3.90017280168230
 16    -5.89002288182690    11.33427351250576     5.48103643609286
 16    -5.91881809518894    11.36835687454843     2.37418443144892
 16    15.57402933519308     0.94896314301225     5.51634333074940
 16    15.60544973311054     0.96112459333267     2.40924225422225
 42    13.76374479561629     0.98938576579436     3.94230880651062
 16    12.90476347104814     2.59662130329834     5.48968342032182
 16    12.94504310562853     2.61572519508636     2.38284585118184
 42    11.10036261313458     2.65738084445330     3.90987819878369
 16    10.24430669968082     4.26635615108505     5.45990838128908
 16    10.28737917761937     4.29348393393076     2.35337801031956
 42     8.44244178898654     4.34827884721128     3.87857432572674
 16     7.59106015730242     5.95703147164738     5.43501369412652
 16     7.62735744957221     5.99294128374392     2.32867914964931
 42     5.78609459069968     6.05732170179713     3.85828895196382
 16     4.93952178467970     7.66323686176306     5.42403723580859
 16     4.96055154421285     7.70710156618654     2.31769988155232
 42     3.12603513526618     7.77555198833555     3.85683124890115
 16     2.28099555796218     9.37650421354688     5.43161797539392
 16     2.28384604625492     9.42472140573273     2.32510944287294
 42     0.45634651386636     9.49237331696007     3.87503649319683
 16    -0.39330727828851    11.08764629846441     5.45491952819553
 16    -0.40495104396330    11.13422357554779     2.34814571579726
 42    -2.22817402211218    11.19857886552537     3.90620267097634
 16    -3.08859141120081    12.78894811533936     5.48546583245591
 16    -3.10736699903978    12.82773625880895     2.37842676476915
 42    -4.93028591308618    12.88855521439025     3.94022830886081
 16    -5.80471801544688    14.47553301090523     5.51429485792778
 16    -5.82390184407789    14.50278481514310     2.40708856520986
 42    -7.64944433733823    14.56078490356674     3.96911778090600
 16    -8.53737008937724    16.14578137070894     5.53629776303720
 16    -8.55351064513368    16.16110804317746     2.42903169061413
 16    21.05624359969008     0.86915656833292     5.55095815695496
 16    21.06739367130574     0.87750611448085     2.44367083738766
 42    19.23532616616880     0.88313233750869     3.98980845675479
 16    18.37878727073124     2.48551110196327     5.54224032799317
 16    18.39723838008899     2.49934169910427     2.43503531247729
 42    16.56272819954260     2.51365029862492     3.97584733381497
 16    15.70636596828993     4.11815206344951     5.52811178795574
 16    15.73347459345953     4.13763138400721     2.42100888189041
 42    13.89611720693287     4.16406896017410     3.95576766539074
 16    13.03990386614475     5.77101814626939     5.50849065798528
 16    13.07358402785981     5.79618460884862     2.40152892765528
 42    11.23439418513117     5.83677623997190     3.93186258791752
 16    10.37954738609004     7.44537328272970     5.48728370646192
 16    10.41334938297208     7.47646126242242     2.38044150797020
 42     8.57499617029022     7.53022168652284     3.91074900132960
 16     7.72252242214047     9.13838153394631     5.47183536179944
 16     7.74809256679565     9.17528753312963     2.36499896688232
 42     5.91369381429204     9.23809599933478     3.90059718569635
 16     5.06222672671180    10.84315232297200     5.46883390298501
 16     5.07394002409430    10.88421301460179     2.36187271124172
 42     3.24499207964352    10.95060479323323     3.90595269998187
 16     2.39015734815923    12.55052810561062     5.47972979640167
 16     2.38820787918681    12.59198737261298     2.37257923591541
 42     0.56341522754725    12.65769038358576     3.92457453753752
 16    -0.30033696630112    14.25190463013758     5.49974302911732
 16    -0.31085792434439    14.28896336747696     2.39242228085817
 42    -2.13474615441523    14.35211316029487     3.94908384382241
 16    -3.01131129794737    15.94134563003867     5.52129645268041
 16    -3.02411499765304    15.97021771932304     2.41389418937387
 42    -4.85025270952026    16.03075795498535     3.97174785439752
 16    -5.74024427249919    17.61629946546812     5.53860312510955
 16    -5.75119773917183    17.63559807697633     2.43120826748317
 42    -7.58103351739948    17.69400219696920     3.98834079901837
 16    -8.48218886028850    19.27710988624975     5.54982799591526
 16    -8.49025968056732    19.28766623852294     2.44246301092215
 42   -10.32337918690958    19.34410015407236     3.99869534441079
 16   -11.23218466298062    20.92574839091867     5.55623184879065
 16   -11.23839127307548    20.92951374607604     2.44886536764803
 16    26.53477707435753     0.83038280280821     5.56017951829629
 16    26.53687321396501     0.83598158967724     2.45278232687242
 42    24.70912239240378     0.82999711126260     4.00493497933456
 16    23.85286689044554     2.42930415348697     5.56039713592554
 16    23.85702536562185     2.43928193532074     2.45308454772594
 42    22.02905186707733     2.43714399742580     4.00332205818608
 16    21.17386915990043     4.03747037009342     5.55948268983968
 16    21.18225091259847     4.05183965380588     2.45224184933484
 42    19.35330759513929     4.05659454896478     3.99918242421288
 16    18.49776088468075     5.65898892437580     5.55507446689949
 16    18.51267740621151     5.67717784537748     2.44788510059760
 42    16.68191083504173     5.69250194036695     3.99016164321701
 16    15.82524457024336     7.29802522237061     5.54513941912376
 16    15.84733354511967     7.31927170558227     2.43798827470679
 42    14.01457607709579     7.34838893692917     3.97542247409390
 16    13.15729286191813     8.95727204882268     5.53020632338997
 16    13.18356022181303     8.98125123932906     2.42308382713165
 42    11.35007338056098     9.02520702236703     3.95786690937040
 16    10.49332701984829    10.63617226303221     5.51473002035356
 16    10.51735838480942    10.66309347658610     2.40759072520627
 42     8.68557282043457    10.71965451020371     3.94395747684612
 16     7.82934829457987    12.33001063597222     5.50534196679747
 16     7.84456901840595    12.35977637130195     2.39809519913128
 42     6.01654189811225    12.42393277067309     3.94004258525695
 16     5.15821823681227    14.03064242119216     5.50649917539856
 16     5.16190379950795    14.06180993511295     2.39909899229288
 42     3.33762094250405    14.12803514840152     3.94791062142501
 16     2.47256022703018    15.72900758499467     5.51729922575871
 16     2.46718228115986    15.75874129323218     2.40976500539924
 42     0.64434853031399    15.82335117089599     3.96359338265329
 16    -0.23173199648876    17.41807341064212     5.53240098069520
 16    -0.24083637117336    17.44337094327406     2.42481185288216
 42    -2.06532265477453    17.50506862721438     3.98049040255386
 16    -2.95430007469596    19.09423565919480     5.54593659846743
 16    -2.96244594578907    19.11333232653229     2.43838817216386
 42    -4.79072658714034    19.17232537220036     3.99352981087515
 16    -5.69156388141171    20.75716436882649     5.55473372193661
 16    -5.69670271749072    20.76996873925489     2.44725899123419
 42    -7.52913143382691    20.82681200901878     4.00113850404776
 16    -8.43895404660060    22.40860232479846     5.55879456969854
 16    -8.44150470486614    22.41608615821245     2.45136188398757
 42   -10.27703731579182    22.47112734492610     4.00453708035095
 16   -11.19254553208334    24.05099213790148     5.55994002904432
 16   -11.19411321725314    24.05436884200083     2.45249979204586
 42   -13.03116208313627    24.10766848081478     4.00597984431807
 16   -13.94959076226221    25.68651234535824     5.56028007868633
 16   -13.95179581132234    25.68677113754554     2.45280844310232
 16    32.01115283111197     0.81145969942384     5.56137294193606
 16    32.01122157303915     0.81592656207380     2.45387251636217
 42    30.18439170482682     0.80450179535057     4.00743227146147
 16    29.32555974856069     2.40185450126582     5.56369334603775
 16    29.32537136601259     2.40972324979136     2.45626204321194
 42    27.49917518983241     2.39961967785101     4.00949062326830
 16    26.64191426250039     3.99703844010568     5.56718202205539
 16    26.64209824161913     4.00843371479835     2.45983660581989
 42    24.81649609672740     4.00144257925032     4.01232151628528
 16    23.95983366009141     5.59966537529032     5.57084510181734
 16    23.96189114504120     5.61415193817873     2.46358368562294
 42    22.13642289396143     5.61289652502404     4.01440373635424
 16    21.27917856742457     7.21319447882920     5.57259125257789
 16    21.28536826038334     7.22974939980100     2.46539267834195
 42    19.45919554715523     7.23764376657805     4.01320551711458
 16    18.60047430185612     8.84149747472902     5.56979302929104
 16    18.61268430879070     8.85886101045069     2.46261245459465
 42    16.78509794635119     8.87941546488656     4.00639250092567
 16    15.92491218185703    10.48782626048035     5.56098221373239
 16    15.94276852455335    10.50519093045768     2.45379139748730
 42    14.11396079756002    10.54068804910944     3.99400364841783
 16    13.25325742728477    12.15326311623456     5.54785438491698
 16    13.27293508589197    12.17077008153652     2.44062517276356
 42    11.44437378611221    12.22073158020195     3.97988971039783
 16    10.58390325822224    13.83528150706077     5.53551418021734
 16    10.59941688719500    13.85368571393071     2.42818993340622
 42     8.77312164226890    13.91434223687133     3.97028431397154
 16     7.91181075132056    15.52748960226446     5.52970383748054
 16     7.91858380768776    15.54710503146665     2.42223895602959
 42     6.09550430723071    15.61271185121731     3.96971945671558
 16     5.22993137289021    17.22118415357219     5.53281402688257
 16     5.22771979004158    17.24112005002654     2.42521395736502
 42     3.40669528440624    17.30645910575653     3.97780925195367
 16     2.53260475615411    18.90837513644745     5.54236094517428
 16     2.52515089019652    18.92683752096566     2.43468965172707
 42     0.70350952394182    18.98909281528139     3.98993382736807
 16    -0.18202662404059    20.58418908949497     5.55324906118434
 16    -0.18991252017634    20.59958408770008     2.44560171906390
 42    -2.01477433157784    20.65818273616245     4.00079024036148
 16    -2.91218197919407    22.24725241463350     5.56128855109814
 16    -2.91732581621094    22.25900125632392     2.45371687729180
 42    -4.74665926114564    22.31457640615812     4.00738367528345
 16    -5.65418824468757    23.89888153164014     5.56494668237777
 16    -5.65586964550932    23.90729760451817     2.45744496440622
 42    -7.48941171455104    23.96071492412959     4.00955636604308
 16    -8.40425651774688    25.54158256513620     5.56496579549771
 16    -8.40353532556721    25.54729625993539     2.45748738693935
 42   -10.24005968530160    25.59924158906832     4.00889367571052
 16   -11.15941277891610    27.17787646493132     5.56311307088348
 16   -11.15801884152257    27.18137989724575     2.45561784865419
 42   -12.99602625414144    27.23226502629435     4.00738555756231
 16   -13.91760569382491    28.80968883669369     5.56115156026944
 16   -13.91712380143175    28.81120326326817     2.45362375722167
 42   -15.75528986628044    28.86118460444276     4.00661310313528
 16   -16.67744484531798    30.43824982326023     5.56035265202739
 16   -16.67896629829163    30.43782051515166     2.45280286850439
 16    37.48745769387784     0.80166110526137     5.56144824927120
 16    37.48747016840838     0.80632168103001     2.45389363154349
 42    35.66060780464382     0.79212774068550     4.00752769298030
 16    34.79895781953939     2.38805415920259     5.56404359432590
 16    34.79842718118892     2.39530078715601     2.45653357601732
 42    32.97211710981428     2.38137816032222     4.01007394370417
 16    32.11140544514338     3.97684880182563     5.56794313194116
 16    32.11018967844095     3.98678729476997     2.46049681391336
 42    30.28472531930906     3.97418617964038     4.01404705825216
 16    29.42454873498929     5.56956790829329     5.57314822768698
 16    29.42287205354519     5.58201694539734     2.46578158381179
 42    27.59838156693475     5.57227429586954     4.01923664643728
 16    26.73814346787143     7.16835663540748     5.57901031384668
 16    26.73694643268981     7.18267266715321     2.47173678131116
 42    24.91320302220649     7.17798567599955     4.02456258202773
 16    24.05217054323558     8.77607234619611     5.58391899258373
 16    24.05324453722313     8.79110181239213     2.47672404419902
 42    22.22961966215800     8.79438362711431     4.02787759808390
 16    21.36710763994000    10.39611474210162     5.58541134516140
 16    21.37260902949786    10.41042929184294     2.47825258891562
 42    19.54828570147831    10.42496155916157     4.02649948079666
 16    18.68415455810453    12.03178810129363     5.58121367964742
 16    18.69517444037974    12.04428330921548     2.47404851077108
 42    16.86975022251016    12.07282274290069     4.01886446675002
 16    16.00471992210042    13.68514500103377     5.57108780324300
 16    16.01969052600560    13.69568592959831     2.46388025974540
 42    14.19379125454058    13.73904097641599     4.00642598535704
 16    13.32888446123971    15.35546551391059     5.55812258971714
 16    13.34335444825861    15.36500904853193     2.45083044669876
 42    11.51855497822309    15.42094381558428     3.99398289574411
 16    10.65382796830304    17.03838108902190     5.54777683683066
 16    10.66264069053521    17.04824390025545     2.44035342354347
 42     8.84039370856758    17.11171441814819     3.98717971640081
 16     7.97377816551909    18.72637713082400     5.54452470494143
 16     7.97438771106357    18.73714263760339     2.43696347248443
 42     6.15463456266708    18.80224923127526     3.98865082813436
 16     5.28241503924365    20.41111292339715     5.54883322265572
 16     5.27640847765610    20.42221744867513     2.44117402223455
 42     3.45729630026334    20.48463417608442     3.99640061652195
 16     2.57596660413197    22.08636548663640     5.55728470608006
 16     2.56749457256415    22.09667514893254     2.44961224871304
 42     0.74641947889771    22.15467953691410     4.00581025005351
 16    -0.14577264367334    23.74937718459422     5.56541945761571
 16    -0.15277610272141    23.75810275035075     2.45780092537012
 42    -1.97778332272671    23.81190238357274     4.01286884978499
 16    -2.88042608656858    25.40052455565007     5.57033631076805
 16    -2.88392561872325    25.40757744875566     2.46278893007295
 42    -4.71350502331013    25.45827635039713     4.01588198542488
 16    -5.62471245129649    27.04208861895181     5.57137676577920
 16    -5.62467087623510    27.04778716376181     2.46387188937514
 42    -7.45830433952770    27.09656507278658     4.01526263552563
 16    -8.37565816301185    28.67684880358886     5.56944284243487
 16    -8.37327935189777    28.68148698433704     2.46194012860089
 42   -10.20981927080899    28.72930986046198     4.01250595958702
 16   -11.13102222132492    30.30723676527044     5.56604424240762
 16   -11.12792559005279    30.31085388173721     2.45851738113812
 42   -12.96607364179756    30.35838312313227     4.00926498079441
 16   -13.88924004020422    31.93497717523424     5.56263285275210
 16   -13.88691027794465    31.93736839003792     2.45507141756134
 42   -15.72549015610801    31.98497740235210     4.00685404502221
 16   -16.64920068127122    33.56109527376950     5.56033506569042
 16   -16.64877433335841    33.56197675458855     2.45275175588546
 42   -18.48684629944104    33.60979879637534     4.00617476902443
 16   -19.41010482572856    35.18612121414964     5.55990237429545
 16   -19.41227220024667    35.18525253773073     2.45231354582130
 16    42.96430665106818     0.79579079760855     5.56171565395134
 16    42.96446458372899     0.80146096869081     2.45414275411259
 42    41.13747165744498     0.78568166008466     4.00769576101630
 16    40.27400752608603     2.38045859806724     5.56469301246440
 16    40.27380893600091     2.38816877214966     2.45715523826985
 42    38.44710354762936     2.37219207043140     4.01051390467065
 16    37.58361371473987     3.96623579914751     5.56851282057698
 16    37.58284110593834     3.97590224996250     2.46101811846917
 42    35.75672223774533     3.96050791920270     4.01435561539560
 16    34.89294354742220     5.55401878504537     5.57334172711571
 16    34.89140637207677     5.56549126828111     2.46590327170202
 42    33.06616400716013     5.55166746241805     4.01939200454567
 16    32.20188308359533     7.14505613523216     5.57921087004464
 16    32.19960398402145     7.15800808079203     2.47184598403687
 42    30.37542512891880     7.14703836615787     4.02554148290366
 16    29.51040456042475     8.74107352479592     5.58573195329609
 16    29.50792564125406     8.75485840156262     2.47845555233839
 42    27.68474881051544     8.74851550002422     4.03209184458081
 16    26.81867372776017    10.34441396133618     5.59176180121283
 16    26.81729635673571    10.35798790686943     2.48457316398557
 42    24.99470210396358    10.35863649322344     4.03741459601731
 16    24.12722606085511    11.95798157297199     5.59531438215738
 16    24.12888609672426    11.97003175158819     2.48817905655365
 42    22.30616660748043    11.98050519296363     4.03910324560113
 16    21.43722975321370    13.58492736195813     5.59404112088423
 16    21.44361227925976    13.59426372669712     2.48691404594082
 42    19.62013651113328    13.61730354632330     4.03497199838493
 16    18.75032048341740    15.22776930979042     5.58663211164590
 16    18.76140482511663    15.23397446948424     2.47946829174621
 42    16.93722110262230    15.27114784455376     4.02479854453523
 16    16.06757434626293    16.88710979306412     5.57439070317087
 16    16.08063154364609    16.89094281070811     2.46715001369716
 42    14.25675510997991    16.94137064450825     4.01155560271859
 16    13.38798759533205    18.56044979616757     5.56156679335363
 16    13.39834979633505    18.56353697941904     2.45420884268166
 42    11.57627442047877    18.62343373137678     4.00055754585508
 16    10.70752057381658    20.24194517049951     5.55333382580076
 16    10.71126606572167    20.24577231242453     2.44583306104515
 42     8.89175258150460    20.30944263079500     3.99628339416849
 16     8.02019592900624    21.92370367829040     5.55249907433817
 16     8.01666844810994    21.92874162531776     2.44488229738976
 42     6.19885377955065    21.99086276148230     3.99945238844669
 16     5.32096100263502    23.59854573352924     5.55788051059531
 16     5.31286244292623    23.60422523469860     2.45021667976522
 42     3.49460841030481    23.66175505953858     4.00702772758472
 16     2.60773054286537    25.26218661148847     5.56568479847098
 16     2.59900466907501    25.26765458175956     2.45805186451642
 42     0.77805266335460    25.31995729584979     4.01478098703923
 16    -0.11865031510568    26.91360892591772     5.57223645915220
 16    -0.12498217189943    26.91845703902402     2.46467062024713
 42    -1.95001420164175    26.96642872037986     4.01977305434541
 16    -2.85572337331097    28.55435108833210     5.57556917002278
 16    -2.85840794580638    28.55865455544538     2.46805953143018
 42    -4.68778147980683    28.60374927323715     4.02107544828388
 16    -5.60075795176030    30.18713362002743     5.57546404724423
 16    -5.60003888150985    30.19114236185309     2.46797290557923
 42    -7.43319641156532    30.23473886503271     4.01925464927718
 16    -8.35145791334417    31.81473573333508     5.57275344989921
 16    -8.34843219219219    31.81856649912500     2.46524670041499
 42   -10.18441068164694    31.86178038125827     4.01556448155599
 16   -11.10612713346415    33.43943128619619     5.56865615883789
 16   -11.10217939458660    33.44294704317899     2.46111501269474
 42   -12.93991998228194    33.48657008918624     4.01134494644931
 16   -13.86355057468246    35.06279439370137     5.56437747248259
 16   -13.86003385108363    35.06565622715758     2.45679927165120
 42   -15.69853490016662    35.11019826705813     4.00775779241660
 16   -16.62285581657322    36.68578970930298     5.56094259954291
 16   -16.62089968236064    36.68756863763963     2.45333536301814
 42   -18.45929349384151    36.73326755843557     4.00567862676207
 16   -19.38336120991176    38.30891161548985     5.55913060277483
 16   -19.38379430941611    38.30921521430778     2.45151390678615
 42   -21.22137639495573    38.35613247434487     4.00569427368577
 16   -22.14450813278955    39.93238633092125     5.55946040529177
 16   -22.14778138195541    39.93094735578067     2.45185461849940
 16    48.44170051241600     0.79090827448010     5.56214656403357
 16    48.44193726447962     0.79785401754193     2.45457527901164
 42    46.61483301212625     0.78129503248155     4.00807957527550
 16    45.75069506473329     2.37521298816753     5.56581762704611
 16    45.75068835253573     2.38399243849103     2.45828228098389
 42    43.92366921164876     2.36686235727580     4.01151481162935
 16    43.05859483408641     3.95978846655851     5.56997435609873
 16    43.05826958890387     3.97003031525527     2.46247331869570
 42    41.23155561799237     3.95312163099598     4.01553700633992
 16    40.36527121163456     5.54528221841211     5.57460456414164
 16    40.36446180022129     5.55667592752393     2.46714524888002
 42    38.53830533750816     5.54078643077689     4.02021010189315
 16    37.67066841990242     7.13244676321715     5.57980039895912
 16    37.66918362522905     7.14471474597381     2.47239005226316
 42    35.84384574560120     7.13069777784724     4.02565688687111
 16    34.97484097908975     8.72228675670723     5.58561777704606
 16    34.97261644114081     8.73508871015427     2.47827125507787
 42    33.14829414998790     8.72400282460063     4.03186005548323
 16    32.27796276556685    10.31620715310853     5.59186039315103
 16    32.27529109448185    10.32903003389971     2.48459207291455
 42    30.45201365802911    10.32225620270211     4.03839729970102
 16    29.58038909648315    11.91613162009966     5.59779235093920
 16    29.57816886655921    11.92818762526712     2.49060581438950
 42    27.75568993931267    11.92756835257337     4.04413430006439
 16    26.88274254188363    13.52452388290567     5.60194412269362
 16    26.88252791203713    13.53476564969019     2.49482129344709
 42    25.06029815650519    13.54261962267765     4.04716785929688
 16    24.18615777021837    15.14428027148554     5.60225773567037
 16    24.18972275724935    15.15160799318245     2.49515457616122
 42    22.36710041360919    15.17043790277021     4.04527715871000
 16    21.49229314840033    16.77809367769498     5.59698224733548
 16    21.50050217898450    16.78190519515804     2.48985077816337
 42    19.67721000924931    16.81360956440079     4.03728916851157
 16    18.80271065555569    18.42743361693918     5.58612695554052
 16    18.81430174286987    18.42813652686174     2.47892594170873
 42    16.99085238753666    18.47289017528357     4.02454703676557
 16    16.11766999806073    20.09136147127266     5.57246463460902
 16    16.12904860853198    20.09043340521098     2.46515463952657
 42    14.30669474236883    20.14578621740741     4.01121072757498
 16    13.43483987382926    21.76577201772269     5.56078007500450
 16    13.44170221689035    21.76506687115297     2.45332962230689
 42    11.62161771467547    21.82617740462047     4.00233952436849
 16    10.74928794115080    23.44386497659528     5.55523682621488
 16    10.74923620883902    23.44459825689207     2.44765835914748
 42     8.93144084437779    23.50585003925637     4.00077085768208
 16     8.05550513542419    25.11816216206025     5.55682188109835
 16     8.04942187672855    25.12038223472417     2.44916763311393
 42     6.23251765184509    25.17757735033137     4.00552973013335
 16     5.34988621917677    26.78302829646395     5.56314187032612
 16     5.34095449145379    26.78598924487157     2.45549503486829
 42     3.52281808857529    26.83743353272843     4.01306647833587
 16     2.63171203018161    28.43593845847064     5.57051431767892
 16     2.62330541075998    28.43892623873101     2.46292957799458
 42     0.80215828581874    28.48488357118659     4.01981692749945
 16    -0.09761320132809    30.07718380716698     5.57608940463458
 16    -0.10330478702782    30.07996539379925     2.46857635885311
 42    -1.92835699207169    30.12181076439952     4.02370012465572
 16    -2.83580916141751    31.70895967889147     5.57859106106353
 16    -2.83805265806447    31.71167512170850     2.47112057543988
 42    -4.66704806605063    31.75104376032473     4.02425070659134
 16    -5.58066933976263    33.33410100521216     5.57803358275557
 16    -5.57978357711392    33.33697535299849     2.47056344988336
 42    -7.41221860387089    33.37531405436717     4.02202679303914
 16    -8.33042732482476    34.95525070228955     5.57512155094117
 16    -8.32730150604655    34.95837441077612     2.46762424605441
 42   -10.16242767660897    34.99682627355034     4.01803079013554
 16   -11.08379052895782    36.57449856645000     5.57081548236188
 16   -11.07954527883293    36.57773840547772     2.46327509763753
 42   -12.91654018561634    36.61714247705302     4.01334533212471
 16   -13.83982578408738    38.19331685893239     5.56610329854108
 16   -13.83561472845979    38.19635342606032     2.45851780077765
 42   -15.67366803084111    38.23728811233671     4.00897635271208
 16   -16.59783954863144    39.81265633142164     5.56189437194491
 16   -16.59472988643856    39.81506212973166     2.45427338011356
 42   -18.43308818768230    39.85788208414004     4.00577529257867
 16   -19.35727291534613    41.43308323740123     5.55896966811323
 16   -19.35614976081501    41.43441179921129     2.45132925340598
 42   -21.19413578191287    41.47928981856754     4.00440646329191
 16   -22.11764315719599    43.05490750107388     5.55792591402780
 16   -22.11912046617863    43.05476563998904     2.45028905997768
 42   -23.95617482139494    43.10174916796242     4.00528885028114
 16   -24.87848198452014    44.67830877141039     5.55912500010628
 16   -24.88281033442942    44.67642720005664     2.45151620922974
 16    53.91959131262892     0.78459671580122     5.56262634785039
 16    53.91985323756798     0.79250379344739     2.45507321949974
 42    52.09263834166652     0.77619301126378     4.00854892695352
 16    51.22889892365107     2.36975133549284     5.56708117369524
 16    51.22888198539428     2.37965293683323     2.45956594658846
 42    49.40162795934130     2.36222179794580     4.01277746669127
 16    48.53610675054526     3.95439594845700     5.57193005791545
 16    48.53589738530179     3.96558768130234     2.46445019915179
 42    46.70875619551466     3.94800282199788     4.01740900274868
 16    45.84116273593914     5.53916085639931     5.57689482664747
 16    45.84074401452995     5.55107271390873     2.46945135456165
 42    44.01389239662093     5.53416716147302     4.02224856555353
 16    43.14409380484748     7.12462078448726     5.58188976853707
 16    43.14334541006316     7.13684438931383     2.47448231170310
 42    41.31699752569276     7.12136766675948     4.02728405577730
 16    40.44501767703851     8.71142570537907     5.58697317681202