
     Program PWSCF v.7.0 starts on 18Dec2023 at 22:31:21 

     This program is part of the open-source Quantum ESPRESSO suite
     for quantum simulation of materials; please cite
         "P. Giannozzi et al., J. Phys.:Condens. Matter 21 395502 (2009);
         "P. Giannozzi et al., J. Phys.:Condens. Matter 29 465901 (2017);
         "P. Giannozzi et al., J. Chem. Phys. 152 154105 (2020);
          URL http://www.quantum-espresso.org", 
     in publications or presentations arising from this work. More details at
     http://www.quantum-espresso.org/quote

     Parallel version (MPI & OpenMP), running on      32 processor cores
     Number of MPI processes:                32
     Threads/MPI process:                     1

     MPI processes distributed on     8 nodes
     R & G space division:  proc/nbgrp/npool/nimage =      32
     235312 MiB available memory on the printing compute node when the environment starts
 
     Waiting for input...
     Reading input from standard input

     Current dimensions of program PWSCF are:
     Max number of different atomic species (ntypx) = 10
     Max number of k-points (npk) =  40000
     Max angular momentum in pseudopotentials (lmaxx) =  4
     Presently no symmetry can be used with electric field


     IMPORTANT: XC functional enforced from input :
     Exchange-correlation= VDW-DF-C09
                           (   1   4  16   0   1   0   0)
     Any further DFT definition will be discarded
     Please, verify this is what you really want


     gamma-point specific algorithms are used

     Subspace diagonalization in iterative solution of the eigenvalue problem:
     a serial algorithm will be used

 
     Parallelization info
     --------------------
     sticks:   dense  smooth     PW     G-vecs:    dense   smooth      PW
     Min        2077    2077    518               210701   210701   26326
     Max        2080    2080    520               210706   210706   26332
     Sum       66499   66499  16633              6742515  6742515  842537
 
     Using Slab Decomposition
 


     bravais-lattice index     =            0
     lattice parameter (alat)  =      77.6351  a.u.
     unit-cell volume          =  197276.7112 (a.u.)^3
     number of atoms/cell      =         1014
     number of atomic types    =            2
     number of electrons       =      8788.00
     number of Kohn-Sham states=         5273
     kinetic-energy cutoff     =      40.0000  Ry
     charge density cutoff     =     160.0000  Ry
     scf convergence threshold =      1.0E-08
     mixing beta               =       0.3000
     number of iterations used =            8  local-TF  mixing
     Exchange-correlation= VDW-DF-C09
                           (   1   4  16   0   1   0   0)

     GPU acceleration is ACTIVE.


     GPU used by master process:

        Device Number: 0
        Device name: NVIDIA A100-SXM4-40GB
        Compute capability : 80
        Ratio of single to double precision performance  : 2
        Memory Clock Rate (KHz): 1215000
        Memory Bus Width (bits): 5120
        Peak Memory Bandwidth (GB/s): ******

     celldm(1)=  77.635108  celldm(2)=   0.000000  celldm(3)=   0.000000
     celldm(4)=   0.000000  celldm(5)=   0.000000  celldm(6)=   0.000000

     crystal axes: (cart. coord. in units of alat)
               a(1) = (   1.000000   0.000000  -0.000000 )  
               a(2) = (  -0.500000   0.866025  -0.000000 )  
               a(3) = (  -0.000000   0.000000   0.486823 )  

     reciprocal axes: (cart. coord. in units 2 pi/alat)
               b(1) = (  1.000000  0.577350  0.000000 )  
               b(2) = ( -0.000000  1.154701 -0.000000 )  
               b(3) = (  0.000000  0.000000  2.054136 )  


     PseudoPot. # 1 for Mo read from file:
     /global/homes/j/jdgeorga/espresso/pseudo_new/Mo_ONCV_PBE-1.2.upf
     MD5 check sum: 2665c9f4159700498d9a5f7573bd8e9f
     Pseudo is Norm-conserving, Zval = 14.0
     Generated using ONCVPSP code by D. R. Hamann
     Using radial grid of  602 points,  6 beta functions with: 
                l(1) =   0
                l(2) =   0
                l(3) =   1
                l(4) =   1
                l(5) =   2
                l(6) =   2

     PseudoPot. # 2 for S  read from file:
     /global/homes/j/jdgeorga/espresso/pseudo_new/S_ONCV_PBE-1.2.upf
     MD5 check sum: f9d020296ee6110346977bfd66d424f6
     Pseudo is Norm-conserving, Zval =  6.0
     Generated using ONCVPSP code by D. R. Hamann
     Using radial grid of  602 points,  4 beta functions with: 
                l(1) =   0
                l(2) =   0
                l(3) =   1
                l(4) =   1

     atomic species   valence    mass     pseudopotential
        Mo            14.00    95.94000     Mo( 1.00)
        S              6.00    78.96000     S ( 1.00)

     No symmetry found


                                    s                        frac. trans.

      isym =  1     identity                                     

 cryst.   s( 1) = (     1          0          0      )
                  (     0          1          0      )
                  (     0          0          1      )

 cart.    s( 1) = (  1.0000000 -0.0000000  0.0000000 )
                  (  0.0000000  1.0000000  0.0000000 )
                  (  0.0000000  0.0000000  1.0000000 )


   Cartesian axes

     site n.     atom                  positions (alat units)
         1           Mo  tau(   1) = (  -0.0199907   0.0396904  -0.0804224  )
         2           S   tau(   2) = (   0.0245009   0.0373517  -0.1184892  )
         3           S   tau(   3) = (   0.0242914   0.0369572  -0.0422579  )
         4           S   tau(   4) = (  -0.0402473   0.0797202  -0.1180972  )
         5           S   tau(   5) = (  -0.0397706   0.0789988  -0.0418592  )
         6           Mo  tau(   6) = (   0.1130481   0.0322417  -0.0796225  )
         7           S   tau(   7) = (   0.1580129   0.0301393  -0.1170090  )
         8           S   tau(   8) = (   0.1567835   0.0297513  -0.0407572  )
         9           Mo  tau(   9) = (   0.0486899   0.0743608  -0.0800129  )
        10           S   tau(  10) = (   0.0934336   0.0722336  -0.1177093  )
        11           S   tau(  11) = (   0.0926650   0.0715217  -0.0414686  )
        12           Mo  tau(  12) = (  -0.0157619   0.1165190  -0.0796408  )
        13           S   tau(  13) = (   0.0287072   0.1145245  -0.1177251  )
        14           S   tau(  14) = (   0.0285773   0.1135180  -0.0414825  )
        15           Mo  tau(  15) = (  -0.0804567   0.1584660  -0.0786163  )
        16           S   tau(  16) = (  -0.0362063   0.1566983  -0.1170337  )
        17           S   tau(  17) = (  -0.0357285   0.1555035  -0.0407885  )
        18           S   tau(  18) = (  -0.1013530   0.1984256  -0.1159139  )
        19           S   tau(  19) = (  -0.1005198   0.1973158  -0.0396505  )
        20           Mo  tau(  20) = (   0.2459662   0.0260239  -0.0773179  )
        21           S   tau(  21) = (   0.2909238   0.0246325  -0.1147033  )
        22           S   tau(  22) = (   0.2896962   0.0242596  -0.0384142  )
        23           Mo  tau(  23) = (   0.1815308   0.0674086  -0.0782833  )
        24           S   tau(  24) = (   0.2264858   0.0657325  -0.1156227  )
        25           S   tau(  25) = (   0.2252073   0.0651480  -0.0393424  )
        26           Mo  tau(  26) = (   0.1171540   0.1092527  -0.0789090  )
        27           S   tau(  27) = (   0.1619982   0.1074037  -0.1163772  )
        28           S   tau(  28) = (   0.1609322   0.1065408  -0.0401136  )
        29           Mo  tau(  29) = (   0.0527049   0.1513188  -0.0789427  )
        30           S   tau(  30) = (   0.0973479   0.1494473  -0.1167047  )
        31           S   tau(  31) = (   0.0967634   0.1483406  -0.0404517  )
        32           Mo  tau(  32) = (  -0.0119606   0.1933281  -0.0783498  )
        33           S   tau(  33) = (   0.0324707   0.1915762  -0.1164456  )
        34           S   tau(  34) = (   0.0324567   0.1902793  -0.0401894  )
        35           Mo  tau(  35) = (  -0.0769900   0.2350424  -0.0773752  )
        36           S   tau(  36) = (  -0.0326755   0.2334246  -0.1157134  )
        37           S   tau(  37) = (  -0.0322379   0.2321544  -0.0394501  )
        38           Mo  tau(  38) = (  -0.1424538   0.2763477  -0.0763177  )
        39           S   tau(  39) = (  -0.0981356   0.2748186  -0.1147708  )
        40           S   tau(  40) = (  -0.0975052   0.2737530  -0.0384921  )
        41           S   tau(  41) = (  -0.1639258   0.3157457  -0.1138648  )
        42           S   tau(  42) = (  -0.1632898   0.3150176  -0.0375781  )
        43           Mo  tau(  43) = (   0.3789042   0.0217830  -0.0754145  )
        44           S   tau(  44) = (   0.4235272   0.0210245  -0.1132202  )
        45           S   tau(  45) = (   0.4230199   0.0207561  -0.0369285  )
        46           Mo  tau(  46) = (   0.3142676   0.0621860  -0.0760442  )
        47           S   tau(  47) = (   0.3590214   0.0611989  -0.1136269  )
        48           S   tau(  48) = (   0.3581882   0.0607512  -0.0373220  )
        49           Mo  tau(  49) = (   0.2497455   0.1031210  -0.0768172  )
        50           S   tau(  50) = (   0.2945649   0.1018291  -0.1142622  )
        51           S   tau(  51) = (   0.2935034   0.1011973  -0.0379521  )
        52           Mo  tau(  52) = (   0.1852976   0.1445794  -0.0774810  )
        53           S   tau(  53) = (   0.2300794   0.1430118  -0.1149466  )
        54           S   tau(  54) = (   0.2290300   0.1421911  -0.0386492  )
        55           Mo  tau(  55) = (   0.1208268   0.1864140  -0.0777937  )
        56           S   tau(  56) = (   0.1654841   0.1846738  -0.1154213  )
        57           S   tau(  57) = (   0.1647078   0.1836753  -0.0391409  )
        58           Mo  tau(  58) = (   0.0561870   0.2283528  -0.0775931  )
        59           S   tau(  59) = (   0.1006714   0.2266202  -0.1154860  )
        60           S   tau(  60) = (   0.1003488   0.2254472  -0.0392153  )
        61           Mo  tau(  61) = (  -0.0087608   0.2701249  -0.0769908  )
        62           S   tau(  62) = (   0.0356160   0.2684725  -0.1151145  )
        63           S   tau(  63) = (   0.0357115   0.2672750  -0.0388390  )
        64           Mo  tau(  64) = (  -0.0741280   0.3115453  -0.0762027  )
        65           S   tau(  65) = (  -0.0297591   0.3100101  -0.1144601  )
        66           S   tau(  66) = (  -0.0294014   0.3088982  -0.0381782  )
        67           Mo  tau(  67) = (  -0.1399164   0.3525882  -0.0754959  )
        68           S   tau(  68) = (  -0.0954677   0.3510629  -0.1137765  )
        69           S   tau(  69) = (  -0.0950638   0.3502207  -0.0374927  )
        70           Mo  tau(  70) = (  -0.2060383   0.3933208  -0.0750436  )
        71           S   tau(  71) = (  -0.1614686   0.3917336  -0.1132906  )
        72           S   tau(  72) = (  -0.1611693   0.3912562  -0.0370074  )
        73           S   tau(  73) = (  -0.2276774   0.4321682  -0.1130704  )
        74           S   tau(  74) = (  -0.2275347   0.4320637  -0.0367888  )
        75           Mo  tau(  75) = (   0.5119401   0.0188869  -0.0748713  )
        76           S   tau(  76) = (   0.5561957   0.0182509  -0.1131312  )
        77           S   tau(  77) = (   0.5564563   0.0181415  -0.0368394  )
        78           Mo  tau(  78) = (   0.4471563   0.0587438  -0.0748313  )
        79           S   tau(  79) = (   0.4915756   0.0581451  -0.1128905  )
        80           S   tau(  80) = (   0.4915069   0.0578530  -0.0365870  )
        81           Mo  tau(  81) = (   0.3824012   0.0988418  -0.0750499  )
        82           S   tau(  82) = (   0.4269515   0.0980988  -0.1129056  )
        83           S   tau(  83) = (   0.4265508   0.0976656  -0.0365845  )
        84           Mo  tau(  84) = (   0.3177179   0.1393703  -0.0755100  )
        85           S   tau(  85) = (   0.3623526   0.1383487  -0.1131776  )
        86           S   tau(  86) = (   0.3616575   0.1378028  -0.0368451  )
        87           Mo  tau(  87) = (   0.2531219   0.1804208  -0.0760825  )
        88           S   tau(  88) = (   0.2977693   0.1790721  -0.1136504  )
        89           S   tau(  89) = (   0.2969270   0.1784256  -0.0373200  )
        90           Mo  tau(  90) = (   0.1885577   0.2219395  -0.0765290  )
        91           S   tau(  91) = (   0.2331421   0.2203237  -0.1141461  )
        92           S   tau(  92) = (   0.2323767   0.2195609  -0.0378346  )
        93           Mo  tau(  93) = (   0.1239094   0.2637119  -0.0766224  )
        94           S   tau(  94) = (   0.1683621   0.2619927  -0.1144244  )
        95           S   tau(  95) = (   0.1678955   0.2611106  -0.0381335  )
        96           Mo  tau(  96) = (   0.0590462   0.3054495  -0.0763363  )
        97           S   tau(  97) = (   0.1033897   0.3037551  -0.1143389  )
        98           S   tau(  98) = (   0.1032866   0.3028221  -0.0380529  )
        99           Mo  tau(  99) = (  -0.0061637   0.3469219  -0.0758054  )
       100           S   tau( 100) = (   0.0381590   0.3453444  -0.1139469  )
       101           S   tau( 101) = (   0.0383354   0.3444104  -0.0376577  )
       102           Mo  tau( 102) = (  -0.0717783   0.3880140  -0.0752974  )
       103           S   tau( 103) = (  -0.0273576   0.3865149  -0.1134699  )
       104           S   tau( 104) = (  -0.0271228   0.3857418  -0.0371744  )
       105           Mo  tau( 105) = (  -0.1377476   0.4287797  -0.0749821  )
       106           S   tau( 106) = (  -0.0931958   0.4272667  -0.1131196  )
       107           S   tau( 107) = (  -0.0930380   0.4267334  -0.0368277  )
       108           Mo  tau( 108) = (  -0.2039409   0.4693510  -0.0749258  )
       109           S   tau( 109) = (  -0.1592453   0.4677296  -0.1130001  )
       110           S   tau( 110) = (  -0.1592540   0.4674812  -0.0367154  )
       111           Mo  tau( 111) = (  -0.2701863   0.5099187  -0.0751511  )
       112           S   tau( 112) = (  -0.2253951   0.5080838  -0.1131574  )
       113           S   tau( 113) = (  -0.2255949   0.5081598  -0.0368760  )
       114           S   tau( 114) = (  -0.2914699   0.5485143  -0.1136250  )
       115           S   tau( 115) = (  -0.2918647   0.5489695  -0.0373413  )
       116           Mo  tau( 116) = (   0.6450398   0.0158976  -0.0756941  )
       117           S   tau( 117) = (   0.6889268   0.0148113  -0.1144244  )
       118           S   tau( 118) = (   0.6899240   0.0148483  -0.0381335  )
       119           Mo  tau( 119) = (   0.5802597   0.0559507  -0.0749890  )
       120           S   tau( 120) = (   0.6243426   0.0551993  -0.1134926  )
       121           S   tau( 121) = (   0.6250227   0.0550274  -0.0371886  )
       122           Mo  tau( 122) = (   0.5153677   0.0958336  -0.0745700  )
       123           S   tau( 123) = (   0.5596243   0.0952163  -0.1128615  )
       124           S   tau( 124) = (   0.5599658   0.0949234  -0.0365420  )
       125           Mo  tau( 125) = (   0.4504291   0.1357845  -0.0744371  )
       126           S   tau( 126) = (   0.4948090   0.1351111  -0.1125356  )
       127           S   tau( 127) = (   0.4948143   0.1347401  -0.0361961  )
       128           Mo  tau( 128) = (   0.3855227   0.1760255  -0.0745858  )
       129           S   tau( 129) = (   0.4299916   0.1751410  -0.1125031  )
       130           S   tau( 130) = (   0.4296851   0.1747252  -0.0361487  )
       131           Mo  tau( 131) = (   0.3207013   0.2167208  -0.0749643  )
       132           S   tau( 132) = (   0.3652127   0.2155176  -0.1127359  )
       133           S   tau( 133) = (   0.3646595   0.2150754  -0.0363821  )
       134           Mo  tau( 134) = (   0.2559649   0.2579074  -0.0754090  )
       135           S   tau( 135) = (   0.3004493   0.2563847  -0.1131294  )
       136           S   tau( 136) = (   0.2998170   0.2559201  -0.0367951  )
       137           Mo  tau( 137) = (   0.1912464   0.2994568  -0.0756941  )
       138           S   tau( 138) = (   0.2356312   0.2977302  -0.1134926  )
       139           S   tau( 139) = (   0.2351423   0.2972271  -0.0371887  )
       140           Mo  tau( 140) = (   0.1264291   0.3411124  -0.0756634  )
       141           S   tau( 141) = (   0.1707077   0.3393498  -0.1136250  )
       142           S   tau( 142) = (   0.1705108   0.3387802  -0.0373413  )
       143           Mo  tau( 143) = (   0.0613766   0.3825937  -0.0753564  )
       144           S   tau( 144) = (   0.1056027   0.3809416  -0.1134649  )
       145           S   tau( 145) = (   0.1056819   0.3803411  -0.0371757  )
       146           Mo  tau( 146) = (  -0.0040068   0.4237216  -0.0749905  )
       147           S   tau( 147) = (   0.0402942   0.4222047  -0.1131463  )
       148           S   tau( 148) = (   0.0404716   0.4216621  -0.0368494  )
       149           Mo  tau( 149) = (  -0.0697325   0.4644768  -0.0747533  )
       150           S   tau( 150) = (  -0.0252855   0.4630423  -0.1128684  )
       151           S   tau( 151) = (  -0.0251730   0.4626126  -0.0365672  )
       152           Mo  tau( 152) = (  -0.1357056   0.5049814  -0.0747522  )
       153           S   tau( 153) = (  -0.0910741   0.5035234  -0.1127826  )
       154           S   tau( 154) = (  -0.0911401   0.5032651  -0.0364862  )
       155           Mo  tau( 155) = (  -0.2017912   0.5454141  -0.0750382  )
       156           S   tau( 156) = (  -0.1570107   0.5438082  -0.1129641  )
       157           S   tau( 157) = (  -0.1573085   0.5437671  -0.0366738  )
       158           Mo  tau( 158) = (  -0.2678041   0.5859794  -0.0756634  )
       159           S   tau( 159) = (  -0.2228978   0.5841009  -0.1134650  )
       160           S   tau( 160) = (  -0.2234575   0.5843325  -0.0371758  )
       161           Mo  tau( 161) = (  -0.3335750   0.6268617  -0.0766224  )
       162           S   tau( 162) = (  -0.2886368   0.6246107  -0.1143389  )
       163           S   tau( 163) = (  -0.2893931   0.6251665  -0.0380529  )
       164           S   tau( 164) = (  -0.3540784   0.6655323  -0.1154860  )
       165           S   tau( 165) = (  -0.3549329   0.6663982  -0.0392153  )
       166           Mo  tau( 166) = (   0.7781475   0.0114339  -0.0777937  )
       167           S   tau( 167) = (   0.8219010   0.0095839  -0.1167048  )
       168           S   tau( 168) = (   0.8231517   0.0096311  -0.0404517  )
       169           Mo  tau( 169) = (   0.7135160   0.0523278  -0.0765290  )
       170           S   tau( 170) = (   0.7573258   0.0509783  -0.1154213  )
       171           S   tau( 171) = (   0.7585787   0.0508053  -0.0391409  )
       172           Mo  tau( 172) = (   0.6486633   0.0927202  -0.0754090  )
       173           S   tau( 173) = (   0.6926232   0.0917469  -0.1141461  )
       174           S   tau( 174) = (   0.6936664   0.0914654  -0.0378346  )
       175           Mo  tau( 175) = (   0.5836162   0.1327876  -0.0746185  )
       176           S   tau( 176) = (   0.6277397   0.1320062  -0.1131294  )
       177           S   tau( 177) = (   0.6284583   0.1316909  -0.0367951  )
       178           Mo  tau( 178) = (   0.5184493   0.1727514  -0.0741764  )
       179           S   tau( 179) = (   0.5627183   0.1719909  -0.1124888  )
       180           S   tau( 180) = (   0.5630802   0.1716896  -0.0361357  )
       181           Mo  tau( 181) = (   0.4532692   0.2128576  -0.0740614  )
       182           S   tau( 182) = (   0.4976253   0.2119391  -0.1121934  )
       183           S   tau( 183) = (   0.4976518   0.2116799  -0.0358227  )
       184           Mo  tau( 184) = (   0.3881669   0.2533045  -0.0742424  )
       185           S   tau( 185) = (   0.4325734   0.2521166  -0.1122134  )
       186           S   tau( 186) = (   0.4323155   0.2519102  -0.0358413  )
       187           Mo  tau( 187) = (   0.3231878   0.2942061  -0.0746185  )
       188           S   tau( 188) = (   0.3675878   0.2927025  -0.1124889  )
       189           S   tau( 189) = (   0.3671460   0.2925398  -0.0361357  )
       190           Mo  tau( 190) = (   0.2583234   0.3355314  -0.0749890  )
       191           S   tau( 191) = (   0.3026461   0.3337694  -0.1128615  )
       192           S   tau( 192) = (   0.3022217   0.3336200  -0.0365420  )
       193           Mo  tau( 193) = (   0.1934907   0.3770796  -0.0751511  )
       194           S   tau( 194) = (   0.2377064   0.3752213  -0.1131312  )
       195           S   tau( 195) = (   0.2374814   0.3750503  -0.0368394  )
       196           Mo  tau( 196) = (   0.1285532   0.4185638  -0.0750382  )
       197           S   tau( 197) = (   0.1726841   0.4167874  -0.1131574  )
       198           S   tau( 198) = (   0.1727182   0.4165764  -0.0368760  )
       199           Mo  tau( 199) = (   0.0633971   0.4597485  -0.0747730  )
       200           S   tau( 200) = (   0.1075537   0.4581478  -0.1129641  )
       201           S   tau( 201) = (   0.1077381   0.4579105  -0.0366738  )
       202           Mo  tau( 202) = (  -0.0020443   0.5005264  -0.0745486  )
       203           S   tau( 203) = (   0.0422393   0.4991162  -0.1127189  )
       204           S   tau( 204) = (   0.0424013   0.4989010  -0.0364173  )
       205           Mo  tau( 205) = (  -0.0677240   0.5409739  -0.0745218  )
       206           S   tau( 206) = (  -0.0232535   0.5396444  -0.1125989  )
       207           S   tau( 207) = (  -0.0232646   0.5395017  -0.0362943  )
       208           Mo  tau( 208) = (  -0.1335462   0.5812486  -0.0747730  )
       209           S   tau( 209) = (  -0.0888739   0.5798879  -0.1127189  )
       210           S   tau( 210) = (  -0.0891412   0.5798552  -0.0364173  )
       211           Mo  tau( 211) = (  -0.1993540   0.6215757  -0.0753564  )
       212           S   tau( 212) = (  -0.1545086   0.6200282  -0.1131463  )
       213           S   tau( 213) = (  -0.1550673   0.6201459  -0.0368494  )
       214           Mo  tau( 214) = (  -0.2649976   0.6621661  -0.0763363  )
       215           S   tau( 215) = (  -0.2200040   0.6603074  -0.1139469  )
       216           S   tau( 216) = (  -0.2209011   0.6606218  -0.0376577  )
       217           Mo  tau( 217) = (  -0.3303357   0.7031906  -0.0775931  )
       218           S   tau( 218) = (  -0.2853055   0.7009457  -0.1151145  )
       219           S   tau( 219) = (  -0.2863904   0.7014618  -0.0388391  )
       220           Mo  tau( 220) = (  -0.3953081   0.7447232  -0.0789427  )
       221           S   tau( 221) = (  -0.3503270   0.7421179  -0.1164456  )
       222           S   tau( 222) = (  -0.3514431   0.7427784  -0.0401895  )
       223           S   tau( 223) = (  -0.4151739   0.7839030  -0.1177252  )
       224           S   tau( 224) = (  -0.4159806   0.7845187  -0.0414826  )
       225           Mo  tau( 225) = (   0.9112569   0.0049881  -0.0800129  )
       226           S   tau( 226) = (   0.9554021   0.0025443  -0.1184892  )
       227           S   tau( 227) = (   0.9558485   0.0025601  -0.0422579  )
       228           Mo  tau( 228) = (   0.8468075   0.0468338  -0.0789090  )
       229           S   tau( 229) = (   0.8907271   0.0448009  -0.1177093  )
       230           S   tau( 230) = (   0.8917280   0.0444912  -0.0414686  )
       231           Mo  tau( 231) = (   0.7821419   0.0881845  -0.0774810  )
       232           S   tau( 232) = (   0.8259866   0.0865945  -0.1163772  )
       233           S   tau( 233) = (   0.8272670   0.0861027  -0.0401136  )
       234           Mo  tau( 234) = (   0.7171901   0.1290014  -0.0760825  )
       235           S   tau( 235) = (   0.7611086   0.1277505  -0.1149466  )
       236           S   tau( 236) = (   0.7623441   0.1272520  -0.0386492  )
       237           Mo  tau( 237) = (   0.6519638   0.1693768  -0.0749643  )
       238           S   tau( 238) = (   0.6960344   0.1683415  -0.1136504  )
       239           S   tau( 239) = (   0.6970155   0.1679353  -0.0373200  )
       240           Mo  tau( 240) = (   0.5865485   0.2095119  -0.0742424  )
       241           S   tau( 241) = (   0.6307500   0.2085264  -0.1127359  )
       242           S   tau( 242) = (   0.6314096   0.2082685  -0.0363821  )
       243           Mo  tau( 243) = (   0.5210664   0.2496254  -0.0739021  )
       244           S   tau( 244) = (   0.5653740   0.2485630  -0.1122134  )
       245           S   tau( 245) = (   0.5656817   0.2484429  -0.0358413  )
       246           Mo  tau( 246) = (   0.4556472   0.2899569  -0.0739021  )
       247           S   tau( 247) = (   0.4999995   0.2886760  -0.1120510  )
       248           S   tau( 248) = (   0.4999995   0.2886761  -0.0356712  )
       249           Mo  tau( 249) = (   0.3903810   0.3306604  -0.0741764  )
       250           S   tau( 250) = (   0.4347305   0.3291006  -0.1121934  )
       251           S   tau( 251) = (   0.4344927   0.3292073  -0.0358227  )
       252           Mo  tau( 252) = (   0.3253090   0.3717880  -0.0745700  )
       253           S   tau( 253) = (   0.3696036   0.3699536  -0.1125357  )
       254           S   tau( 254) = (   0.3692796   0.3701346  -0.0361961  )
       255           Mo  tau( 255) = (   0.2603850   0.4132298  -0.0748713  )
       256           S   tau( 256) = (   0.3045658   0.4112369  -0.1128905  )
       257           S   tau( 257) = (   0.3043472   0.4114424  -0.0365870  )
       258           Mo  tau( 258) = (   0.1955006   0.4547337  -0.0749258  )
       259           S   tau( 259) = (   0.2395701   0.4527687  -0.1130704  )
       260           S   tau( 260) = (   0.2395892   0.4529446  -0.0367887  )
       261           Mo  tau( 261) = (   0.1305262   0.4960120  -0.0747522  )
       262           S   tau( 262) = (   0.1745569   0.4942519  -0.1130001  )
       263           S   tau( 263) = (   0.1747765   0.4943686  -0.0367154  )
       264           Mo  tau( 264) = (   0.0653649   0.5368896  -0.0745218  )
       265           S   tau( 265) = (   0.1094730   0.5353930  -0.1127826  )
       266           S   tau( 266) = (   0.1097297   0.5354650  -0.0364863  )
       267           Mo  tau( 267) = (  -0.0000005   0.5773512  -0.0744145  )
       268           S   tau( 268) = (   0.0442811   0.5760668  -0.1125989  )
       269           S   tau( 269) = (   0.0444102   0.5761285  -0.0362943  )
       270           Mo  tau( 270) = (  -0.0655108   0.6175335  -0.0745486  )
       271           S   tau( 271) = (  -0.0210290   0.6163423  -0.1125989  )
       272           S   tau( 272) = (  -0.0211470   0.6164232  -0.0362943  )
       273           Mo  tau( 273) = (  -0.1310444   0.6576355  -0.0749905  )
       274           S   tau( 274) = (  -0.0863523   0.6564031  -0.1128684  )
       275           S   tau( 275) = (  -0.0867808   0.6565205  -0.0365672  )
       276           Mo  tau( 276) = (  -0.1964765   0.6979033  -0.0758054  )
       277           S   tau( 277) = (  -0.1515909   0.6964613  -0.1134699  )
       278           S   tau( 278) = (  -0.1523779   0.6966445  -0.0371744  )
       279           Mo  tau( 279) = (  -0.2616861   0.7385509  -0.0769908  )
       280           S   tau( 280) = (  -0.2166454   0.7367934  -0.1144601  )
       281           S   tau( 281) = (  -0.2177871   0.7370396  -0.0381782  )
       282           Mo  tau( 282) = (  -0.3265941   0.7797205  -0.0783499  )
       283           S   tau( 283) = (  -0.2815121   0.7776119  -0.1157135  )
       284           S   tau( 284) = (  -0.2828309   0.7778680  -0.0394501  )
       285           Mo  tau( 285) = (  -0.3912121   0.8214172  -0.0796408  )
       286           S   tau( 286) = (  -0.3461936   0.8190328  -0.1170338  )
       287           S   tau( 287) = (  -0.3474672   0.8192165  -0.0407885  )
       288           Mo  tau( 288) = (  -0.4556333   0.8634936  -0.0804224  )
       289           S   tau( 289) = (  -0.4108382   0.8610215  -0.1180972  )
       290           S   tau( 290) = (  -0.4117012   0.8609693  -0.0418592  )
       291           Mo  tau( 291) = (   0.9155540   0.0817835  -0.0796224  )
       292           Mo  tau( 292) = (   0.8508572   0.1235077  -0.0782833  )
       293           S   tau( 293) = (   0.8948923   0.1217753  -0.1170090  )
       294           S   tau( 294) = (   0.8958429   0.1209046  -0.0407571  )
       295           Mo  tau( 295) = (   0.7858219   0.1647272  -0.0768171  )
       296           S   tau( 296) = (   0.8298312   0.1632780  -0.1156227  )
       297           S   tau( 297) = (   0.8309767   0.1624630  -0.0393424  )
       298           Mo  tau( 298) = (   0.7204429   0.2054684  -0.0755100  )
       299           S   tau( 299) = (   0.7645310   0.2041879  -0.1142622  )
       300           S   tau( 300) = (   0.7656090   0.2035845  -0.0379520  )
       301           Mo  tau( 301) = (   0.6547962   0.2458614  -0.0745858  )
       302           S   tau( 302) = (   0.6990103   0.2446339  -0.1131776  )
       303           S   tau( 303) = (   0.6998306   0.2443049  -0.0368451  )
       304           Mo  tau( 304) = (   0.5890254   0.2861156  -0.0740614  )
       305           S   tau( 305) = (   0.6333277   0.2848149  -0.1125031  )
       306           S   tau( 306) = (   0.6338411   0.2847574  -0.0361487  )
       307           Mo  tau( 307) = (   0.5232849   0.3264458  -0.0739022  )
       308           S   tau( 308) = (   0.5676427   0.3249884  -0.1121934  )
       309           S   tau( 309) = (   0.5678540   0.3251410  -0.0358227  )
       310           Mo  tau( 310) = (   0.4577040   0.3670549  -0.0740614  )
       311           S   tau( 311) = (   0.5020512   0.3653485  -0.1122134  )
       312           S   tau( 312) = (   0.5020013   0.3656750  -0.0358413  )
       313           Mo  tau( 313) = (   0.3923768   0.4080510  -0.0744371  )
       314           S   tau( 314) = (   0.4366793   0.4060722  -0.1125031  )
       315           S   tau( 315) = (   0.4364724   0.4065456  -0.0361487  )
       316           Mo  tau( 316) = (   0.3272940   0.4494058  -0.0748313  )
       317           S   tau( 317) = (   0.3714788   0.4472261  -0.1129056  )
       318           S   tau( 318) = (   0.3713040   0.4477898  -0.0365846  )
       319           Mo  tau( 319) = (   0.2623934   0.4909324  -0.0750436  )
       320           S   tau( 320) = (   0.3064427   0.4887288  -0.1132203  )
       321           S   tau( 321) = (   0.3064638   0.4893023  -0.0369285  )
       322           Mo  tau( 322) = (   0.1975398   0.5323445  -0.0749821  )
       323           S   tau( 323) = (   0.2414831   0.5303245  -0.1132906  )
       324           S   tau( 324) = (   0.2417469   0.5308224  -0.0370074  )
       325           Mo  tau( 325) = (   0.1326176   0.5733986  -0.0747533  )
       326           S   tau( 326) = (   0.1765741   0.5716839  -0.1131196  )
       327           S   tau( 327) = (   0.1769571   0.5720873  -0.0368277  )
       328           Mo  tau( 328) = (   0.0675536   0.6139936  -0.0745486  )
       329           S   tau( 329) = (   0.1116364   0.6126081  -0.1128684  )
       330           S   tau( 330) = (   0.1119523   0.6129205  -0.0365672  )
       331           Mo  tau( 331) = (   0.0023576   0.6541900  -0.0745218  )
       332           S   tau( 332) = (   0.0466331   0.6530494  -0.1127189  )
       333           S   tau( 333) = (   0.0467385   0.6532973  -0.0364173  )
       334           Mo  tau( 334) = (  -0.0628865   0.6941780  -0.0747533  )
       335           S   tau( 335) = (  -0.0184004   0.6931371  -0.1127826  )
       336           S   tau( 336) = (  -0.0185910   0.6933234  -0.0364863  )
       337           Mo  tau( 337) = (  -0.1280824   0.7341812  -0.0752974  )
       338           S   tau( 338) = (  -0.0833797   0.7331029  -0.1131196  )
       339           S   tau( 339) = (  -0.0839206   0.7332329  -0.0368277  )
       340           Mo  tau( 340) = (  -0.1931314   0.7744505  -0.0762027  )
       341           S   tau( 341) = (  -0.1482383   0.7731723  -0.1137765  )
       342           S   tau( 342) = (  -0.1491696   0.7732436  -0.0374927  )
       343           Mo  tau( 343) = (  -0.2579538   0.8151805  -0.0773752  )
       344           S   tau( 344) = (  -0.2129338   0.8136051  -0.1147708  )
       345           S   tau( 345) = (  -0.2141718   0.8135918  -0.0384922  )
       346           Mo  tau( 346) = (  -0.3225376   0.8564709  -0.0786163  )
       347           S   tau( 347) = (  -0.2774833   0.8545878  -0.1159139  )
       348           S   tau( 348) = (  -0.2788610   0.8544211  -0.0396505  )
       349           Mo  tau( 349) = (   0.8544797   0.2000028  -0.0773179  )
       350           Mo  tau( 350) = (   0.7890116   0.2410725  -0.0760442  )
       351           S   tau( 351) = (   0.8332058   0.2396330  -0.1147033  )
       352           S   tau( 352) = (   0.8341426   0.2387562  -0.0384142  )
       353           Mo  tau( 353) = (   0.7232000   0.2817500  -0.0750499  )
       354           S   tau( 354) = (   0.7674896   0.2803240  -0.1136268  )
       355           S   tau( 355) = (   0.7682939   0.2798263  -0.0373220  )
       356           Mo  tau( 356) = (   0.6571926   0.3221926  -0.0744371  )
       357           S   tau( 357) = (   0.7015683   0.3207032  -0.1129056  )
       358           S   tau( 358) = (   0.7021438   0.3205728  -0.0365845  )
       359           Mo  tau( 359) = (   0.5911683   0.3626163  -0.0741764  )
       360           S   tau( 360) = (   0.6355859   0.3609634  -0.1125357  )
       361           S   tau( 361) = (   0.6359046   0.3611535  -0.0361961  )
       362           Mo  tau( 362) = (   0.5252832   0.4032117  -0.0742424  )
       363           S   tau( 363) = (   0.5696924   0.4013347  -0.1124889  )
       364           S   tau( 364) = (   0.5697724   0.4017987  -0.0361357  )
       365           Mo  tau( 365) = (   0.4596797   0.4441412  -0.0745858  )
       366           S   tau( 366) = (   0.5040358   0.4419841  -0.1127359  )
       367           S   tau( 367) = (   0.5039294   0.4426843  -0.0363821  )
       368           Mo  tau( 368) = (   0.3943974   0.4854363  -0.0750499  )
       369           S   tau( 369) = (   0.4386357   0.4830455  -0.1131776  )
       370           S   tau( 370) = (   0.4385105   0.4839204  -0.0368451  )
       371           Mo  tau( 371) = (   0.3294110   0.5269942  -0.0754145  )
       372           S   tau( 372) = (   0.3734876   0.5245052  -0.1136269  )
       373           S   tau( 373) = (   0.3735165   0.5254507  -0.0373220  )
       374           Mo  tau( 374) = (   0.2646079   0.5685620  -0.0754960  )
       375           S   tau( 375) = (   0.3085192   0.5661905  -0.1138648  )
       376           S   tau( 376) = (   0.3088317   0.5671053  -0.0375781  )
       377           Mo  tau( 377) = (   0.1998592   0.6098584  -0.0752974  )
       378           S   tau( 378) = (   0.2437045   0.6078183  -0.1137765  )
       379           S   tau( 379) = (   0.2442319   0.6085892  -0.0374927  )
       380           Mo  tau( 380) = (   0.1350498   0.6506964  -0.0749905  )
       381           S   tau( 381) = (   0.1789471   0.6490773  -0.1134699  )
       382           S   tau( 382) = (   0.1794993   0.6496672  -0.0371744  )
       383           Mo  tau( 383) = (   0.0701476   0.6910564  -0.0747730  )
       384           S   tau( 384) = (   0.1142130   0.6898206  -0.1131463  )
       385           S   tau( 385) = (   0.1145942   0.6902456  -0.0368494  )
       386           Mo  tau( 386) = (   0.0051780   0.7310602  -0.0747522  )
       387           S   tau( 387) = (   0.0494556   0.7300975  -0.1129641  )
       388           S   tau( 388) = (   0.0495689   0.7303759  -0.0366738  )
       389           Mo  tau( 389) = (  -0.0597936   0.7709294  -0.0749821  )
       390           S   tau( 390) = (  -0.0153131   0.7700720  -0.1130001  )
       391           S   tau( 391) = (  -0.0155239   0.7702038  -0.0367154  )
       392           Mo  tau( 392) = (  -0.1246930   0.8109034  -0.0754960  )
       393           S   tau( 393) = (  -0.0800160   0.8099954  -0.1132906  )
       394           S   tau( 394) = (  -0.0805790   0.8099749  -0.0370074  )
       395           Mo  tau( 395) = (  -0.1894505   0.8512212  -0.0763177  )
       396           S   tau( 396) = (  -0.1445948   0.8501174  -0.1138648  )
       397           S   tau( 397) = (  -0.1455433   0.8499307  -0.0375781  )
       398           Mo  tau( 398) = (   0.7916834   0.3172509  -0.0754145  )
       399           Mo  tau( 399) = (   0.7255483   0.3578785  -0.0748313  )
       400           S   tau( 400) = (   0.7700287   0.3562748  -0.1132202  )
       401           S   tau( 401) = (   0.7705148   0.3559697  -0.0369285  )
       402           Mo  tau( 402) = (   0.6593218   0.3984065  -0.0745700  )
       403           S   tau( 403) = (   0.7038572   0.3966462  -0.1128905  )
       404           S   tau( 404) = (   0.7041444   0.3967328  -0.0365870  )
       405           Mo  tau( 405) = (   0.5931945   0.4390345  -0.0746185  )
       406           S   tau( 406) = (   0.6377282   0.4370425  -0.1128615  )
       407           S   tau( 407) = (   0.6378110   0.4374847  -0.0365420  )
       408           Mo  tau( 408) = (   0.5273335   0.4799305  -0.0749643  )
       409           S   tau( 409) = (   0.5718095   0.4776372  -0.1131295  )
       410           S   tau( 410) = (   0.5717232   0.4784172  -0.0367951  )
       411           Mo  tau( 411) = (   0.4618378   0.5211894  -0.0755100  )
       412           S   tau( 412) = (   0.5061948   0.5186145  -0.1136504  )
       413           S   tau( 413) = (   0.5060561   0.5196673  -0.0373200  )
       414           Mo  tau( 414) = (   0.3967193   0.5627696  -0.0760442  )
       415           S   tau( 415) = (   0.4409026   0.5600111  -0.1142622  )
       416           S   tau( 416) = (   0.4408862   0.5612464  -0.0379521  )
       417           Mo  tau( 417) = (   0.3319029   0.6044847  -0.0763177  )
       418           S   tau( 418) = (   0.3758689   0.6017627  -0.1147034  )
       419           S   tau( 419) = (   0.3761599   0.6030123  -0.0384142  )
       420           Mo  tau( 420) = (   0.2672580   0.6460578  -0.0762027  )
       421           S   tau( 421) = (   0.3110680   0.6436300  -0.1147708  )
       422           S   tau( 422) = (   0.3116756   0.6447087  -0.0384922  )
       423           Mo  tau( 423) = (   0.2026388   0.6872283  -0.0758054  )
       424           S   tau( 424) = (   0.2464030   0.6852501  -0.1144601  )
       425           S   tau( 425) = (   0.2471870   0.6861157  -0.0381782  )
       426           Mo  tau( 426) = (   0.1379759   0.7278841  -0.0753564  )
       427           S   tau( 427) = (   0.1818435   0.7264017  -0.1139469  )
       428           S   tau( 428) = (   0.1825643   0.7270214  -0.0376577  )
       429           Mo  tau( 429) = (   0.0732366   0.7680756  -0.0750382  )
       430           S   tau( 430) = (   0.1172936   0.7670111  -0.1134650  )
       431           S   tau( 431) = (   0.1177741   0.7673799  -0.0371758  )
       432           Mo  tau( 432) = (   0.0084388   0.8079688  -0.0749258  )
       433           S   tau( 433) = (   0.0527095   0.8071823  -0.1131574  )
       434           S   tau( 434) = (   0.0528753   0.8073173  -0.0368760  )
       435           Mo  tau( 435) = (  -0.0563566   0.8478003  -0.0750436  )
       436           S   tau( 436) = (  -0.0118942   0.8471166  -0.1130704  )
       437           S   tau( 437) = (  -0.0120560   0.8470453  -0.0367887  )
       438           Mo  tau( 438) = (   0.7276735   0.4339114  -0.0748713  )
       439           Mo  tau( 439) = (   0.6614155   0.4745461  -0.0749890  )
       440           S   tau( 440) = (   0.7060964   0.4725559  -0.1131312  )
       441           S   tau( 441) = (   0.7060609   0.4728363  -0.0368394  )
       442           Mo  tau( 442) = (   0.5953704   0.5154006  -0.0754090  )
       443           S   tau( 443) = (   0.6400248   0.5130986  -0.1134927  )
       444           S   tau( 444) = (   0.6398336   0.5137736  -0.0371887  )
       445           Mo  tau( 445) = (   0.5296865   0.5566060  -0.0760826  )
       446           S   tau( 446) = (   0.5742333   0.5539576  -0.1141462  )
       447           S   tau( 447) = (   0.5739555   0.5550018  -0.0378346  )
       448           Mo  tau( 448) = (   0.4644312   0.5981799  -0.0768172  )
       449           S   tau( 449) = (   0.5088107   0.5952659  -0.1149466  )
       450           S   tau( 450) = (   0.5086246   0.5965851  -0.0386493  )
       451           Mo  tau( 451) = (   0.3995527   0.6400015  -0.0773179  )
       452           S   tau( 452) = (   0.4436816   0.6370177  -0.1156227  )
       453           S   tau( 453) = (   0.4438147   0.6384170  -0.0393424  )
       454           Mo  tau( 454) = (   0.3349424   0.6818307  -0.0773752  )
       455           S   tau( 455) = (   0.3788349   0.6790401  -0.1159140  )
       456           S   tau( 456) = (   0.3793795   0.6803166  -0.0396505  )
       457           Mo  tau( 457) = (   0.2704454   0.7233777  -0.0769908  )
       458           S   tau( 458) = (   0.3141862   0.7210171  -0.1157135  )
       459           S   tau( 459) = (   0.3150674   0.7220311  -0.0394501  )
       460           Mo  tau( 460) = (   0.2059500   0.7644380  -0.0763363  )
       461           S   tau( 461) = (   0.2496881   0.7626353  -0.1151145  )
       462           S   tau( 462) = (   0.2506774   0.7633168  -0.0388391  )
       463           Mo  tau( 463) = (   0.1413736   0.8049618  -0.0756634  )
       464           S   tau( 464) = (   0.1852456   0.8036878  -0.1143389  )
       465           S   tau( 465) = (   0.1861051   0.8040649  -0.0380529  )
       466           Mo  tau( 466) = (   0.0766942   0.8450552  -0.0751511  )
       467           S   tau( 467) = (   0.1207607   0.8441895  -0.1136250  )
       468           S   tau( 468) = (   0.1213524   0.8443038  -0.0373413  )
       469           Mo  tau( 469) = (   0.6637124   0.5506738  -0.0756941  )
       470           Mo  tau( 470) = (   0.5979249   0.5917608  -0.0765290  )
       471           S   tau( 471) = (   0.6427097   0.5892242  -0.1144244  )
       472           S   tau( 472) = (   0.6421791   0.5900693  -0.0381335  )
       473           Mo  tau( 473) = (   0.5325591   0.6332642  -0.0774810  )
       474           S   tau( 474) = (   0.5771887   0.6303760  -0.1154213  )
       475           S   tau( 475) = (   0.5767121   0.6315475  -0.0391409  )
       476           Mo  tau( 476) = (   0.4676106   0.6751118  -0.0782833  )
       477           S   tau( 477) = (   0.5120137   0.6720300  -0.1163772  )
       478           S   tau( 478) = (   0.5117995   0.6733846  -0.0401136  )
       479           Mo  tau( 479) = (   0.4029929   0.7171167  -0.0786163  )
       480           S   tau( 480) = (   0.4470935   0.7141136  -0.1170090  )
       481           S   tau( 481) = (   0.4473722   0.7153722  -0.0407572  )
       482           Mo  tau( 482) = (   0.3385533   0.7590049  -0.0783499  )
       483           S   tau( 483) = (   0.3823985   0.7563225  -0.1170338  )
       484           S   tau( 484) = (   0.3831944   0.7573336  -0.0407885  )
       485           Mo  tau( 485) = (   0.2741473   0.8005102  -0.0775931  )
       486           S   tau( 486) = (   0.3178549   0.7983595  -0.1164456  )
       487           S   tau( 487) = (   0.3189850   0.7989959  -0.0401895  )
       488           Mo  tau( 488) = (   0.2096642   0.8414799  -0.0766224  )
       489           S   tau( 489) = (   0.2534056   0.8399011  -0.1154860  )
       490           S   tau( 490) = (   0.2545827   0.8402082  -0.0392153  )
       491           Mo  tau( 491) = (   0.6010243   0.6681803  -0.0777938  )
       492           Mo  tau( 492) = (   0.5360371   0.7099417  -0.0789091  )
       493           S   tau( 493) = (   0.5807497   0.7069970  -0.1167048  )
       494           S   tau( 494) = (   0.5800835   0.7080565  -0.0404518  )
       495           Mo  tau( 495) = (   0.4713965   0.7520030  -0.0796225  )
       496           S   tau( 496) = (   0.5158378   0.7489937  -0.1177093  )
       497           S   tau( 497) = (   0.5156055   0.7500153  -0.0414686  )
       498           Mo  tau( 498) = (   0.4069727   0.7941175  -0.0796408  )
       499           S   tau( 499) = (   0.4510841   0.7913119  -0.1180972  )
       500           S   tau( 500) = (   0.4514704   0.7920854  -0.0418592  )
       501           Mo  tau( 501) = (   0.3426017   0.8360116  -0.0789427  )
       502           S   tau( 502) = (   0.3864654   0.8336261  -0.1177252  )
       503           S   tau( 503) = (   0.3874020   0.8340168  -0.0414826  )
       504           Mo  tau( 504) = (   0.5400519   0.7866793  -0.0800129  )
       505           Mo  tau( 505) = (   0.4756226   0.8288696  -0.0804224  )
       506           S   tau( 506) = (   0.5200956   0.8261322  -0.1184893  )
       507           S   tau( 507) = (   0.5198587   0.8265109  -0.0422579  )
       508           Mo  tau( 508) = (   0.0443666   0.0025336   0.0804223  )
       509           S   tau( 509) = (   0.0882987   0.0050578   0.0418592  )
       510           S   tau( 510) = (   0.0891617   0.0050057   0.1180973  )
       511           S   tau( 511) = (   0.0198586   0.0395163   0.0422580  )
       512           S   tau( 512) = (   0.0200955   0.0398950   0.1184893  )
       513           Mo  tau( 513) = (   0.1774623   0.0095563   0.0786162  )
       514           S   tau( 514) = (   0.2211388   0.0116060   0.0396506  )
       515           S   tau( 515) = (   0.2225166   0.0114394   0.1159140  )
       516           Mo  tau( 516) = (   0.1087877   0.0446100   0.0796407  )
       517           S   tau( 517) = (   0.1525327   0.0468107   0.0407886  )
       518           S   tau( 518) = (   0.1538062   0.0469944   0.1170338  )
       519           Mo  tau( 519) = (   0.0400518   0.0793479   0.0800128  )
       520           S   tau( 520) = (   0.0840192   0.0815084   0.0414826  )
       521           S   tau( 521) = (   0.0848260   0.0821242   0.1177252  )
       522           Mo  tau( 522) = (  -0.0286036   0.1140242   0.0796223  )
       523           S   tau( 523) = (   0.0156054   0.1160119   0.0414687  )
       524           S   tau( 524) = (   0.0158377   0.1170335   0.1177094  )
       525           S   tau( 525) = (  -0.0526279   0.1506549   0.0407572  )
       526           S   tau( 526) = (  -0.0529066   0.1519136   0.1170090  )
       527           Mo  tau( 527) = (   0.3105494   0.0148060   0.0763176  )
       528           S   tau( 528) = (   0.3544565   0.0160965   0.0375782  )
       529           S   tau( 529) = (   0.3554051   0.0159098   0.1138649  )
       530           Mo  tau( 530) = (   0.2420461   0.0508467   0.0773751  )
       531           S   tau( 531) = (   0.2858280   0.0524354   0.0384922  )
       532           S   tau( 532) = (   0.2870661   0.0524222   0.1147708  )
       533           Mo  tau( 533) = (   0.1734058   0.0863067   0.0783498  )
       534           S   tau( 534) = (   0.2171690   0.0881591   0.0394501  )
       535           S   tau( 535) = (   0.2184878   0.0884153   0.1157135  )
       536           Mo  tau( 536) = (   0.1046918   0.1213040   0.0789426  )
       537           S   tau( 537) = (   0.1485567   0.1232488   0.0401895  )
       538           S   tau( 538) = (   0.1496729   0.1239093   0.1164457  )
       539           Mo  tau( 539) = (   0.0360370   0.1560855   0.0789089  )
       540           S   tau( 540) = (   0.0800834   0.1579706   0.0404518  )
       541           S   tau( 541) = (   0.0807496   0.1590302   0.1167048  )
       542           Mo  tau( 542) = (  -0.0323894   0.1909153   0.0782832  )
       543           S   tau( 543) = (   0.0117994   0.1926425   0.0401136  )
       544           S   tau( 544) = (   0.0120137   0.1939972   0.1163772  )
       545           Mo  tau( 545) = (  -0.1004474   0.2260257   0.0773178  )
       546           S   tau( 546) = (  -0.0561855   0.2276100   0.0393425  )
       547           S   tau( 547) = (  -0.0563185   0.2290095   0.1156227  )
       548           S   tau( 548) = (  -0.1238402   0.2630148   0.0384143  )
       549           S   tau( 549) = (  -0.1241312   0.2642645   0.1147034  )
       550           Mo  tau( 550) = (   0.4436434   0.0182269   0.0750434  )
       551           S   tau( 551) = (   0.4879439   0.0189819   0.0367888  )
       552           S   tau( 552) = (   0.4881057   0.0189105   0.1130704  )
       553           Mo  tau( 553) = (   0.3753069   0.0551238   0.0754958  )
       554           S   tau( 554) = (   0.4194208   0.0560522   0.0370074  )
       555           S   tau( 555) = (   0.4199839   0.0560317   0.1132906  )
       556           Mo  tau( 556) = (   0.3068685   0.0915767   0.0762026  )
       557           S   tau( 557) = (   0.3508303   0.0927835   0.0374928  )
       558           S   tau( 558) = (   0.3517616   0.0928549   0.1137765  )
       559           Mo  tau( 559) = (   0.2383138   0.1274762   0.0769906  )
       560           S   tau( 560) = (   0.2822128   0.1289876   0.0381783  )
       561           S   tau( 561) = (   0.2833545   0.1292337   0.1144601  )
       562           Mo  tau( 562) = (   0.1696642   0.1628366   0.0775930  )
       563           S   tau( 563) = (   0.2136095   0.1645654   0.0388391  )
       564           S   tau( 564) = (   0.2146944   0.1650814   0.1151145  )
       565           Mo  tau( 565) = (   0.1010242   0.1978469   0.0777936  )
       566           S   tau( 566) = (   0.1450670   0.1996290   0.0392153  )
       567           S   tau( 567) = (   0.1459215   0.2004949   0.1154860  )
       568           Mo  tau( 568) = (   0.0325590   0.2327629   0.0774809  )
       569           S   tau( 569) = (   0.0767120   0.2344796   0.0391409  )
       570           S   tau( 570) = (   0.0771886   0.2356512   0.1154213  )
       571           Mo  tau( 571) = (  -0.0355689   0.2678472   0.0768170  )
       572           S   tau( 572) = (   0.0086245   0.2694421   0.0386493  )
       573           S   tau( 573) = (   0.0088106   0.2707613   0.1149466  )
       574           Mo  tau( 574) = (  -0.1032807   0.3032576   0.0760440  )
       575           S   tau( 575) = (  -0.0591138   0.3047808   0.0379521  )
       576           S   tau( 576) = (  -0.0590974   0.3060160   0.1142622  )
       577           Mo  tau( 577) = (  -0.1705890   0.3390330   0.0754144  )
       578           S   tau( 578) = (  -0.1264836   0.3405765   0.0373221  )
       579           S   tau( 579) = (  -0.1265125   0.3415219   0.1136269  )
       580           S   tau( 580) = (  -0.1935362   0.3767249   0.0369285  )
       581           S   tau( 581) = (  -0.1935574   0.3772984   0.1132203  )
       582           Mo  tau( 582) = (   0.5766941   0.0209720   0.0751509  )
       583           S   tau( 583) = (   0.6213523   0.0217233   0.0373413  )
       584           S   tau( 584) = (   0.6207606   0.0218377   0.1136250  )
       585           Mo  tau( 585) = (   0.5084387   0.0580584   0.0749257  )
       586           S   tau( 586) = (   0.5528751   0.0587098   0.0368760  )
       587           S   tau( 587) = (   0.5527094   0.0588449   0.1131575  )
       588           Mo  tau( 588) = (   0.4402063   0.0950978   0.0749820  )
       589           S   tau( 589) = (   0.4844759   0.0958234   0.0367154  )
       590           S   tau( 590) = (   0.4846868   0.0959552   0.1130001  )
       591           Mo  tau( 591) = (   0.3719176   0.1318460   0.0752972  )
       592           S   tau( 592) = (   0.4160793   0.1327943   0.0368277  )
       593           S   tau( 593) = (   0.4166202   0.1329243   0.1131197  )
       594           Mo  tau( 594) = (   0.3035235   0.1681238   0.0758053  )
       595           S   tau( 595) = (   0.3476220   0.1693827   0.0371744  )
       596           S   tau( 596) = (   0.3484090   0.1695659   0.1134699  )
       597           Mo  tau( 597) = (   0.2350023   0.2038611   0.0763362  )
       598           S   tau( 598) = (   0.2790988   0.2054054   0.0376578  )
       599           S   tau( 599) = (   0.2799959   0.2057197   0.1139469  )
       600           Mo  tau( 600) = (   0.1664249   0.2391654   0.0766223  )
       601           S   tau( 601) = (   0.2106068   0.2408607   0.0380529  )
       602           S   tau( 602) = (   0.2113632   0.2414164   0.1143389  )
       603           Mo  tau( 603) = (   0.0979248   0.2742664   0.0765289  )
       604           S   tau( 604) = (   0.1421790   0.2759579   0.0381336  )
       605           S   tau( 605) = (   0.1427097   0.2768030   0.1144244  )
       606           Mo  tau( 606) = (   0.0296865   0.3094212   0.0760824  )
       607           S   tau( 607) = (   0.0739554   0.3110254   0.0378347  )
       608           S   tau( 608) = (   0.0742333   0.3120696   0.1141462  )
       609           Mo  tau( 609) = (  -0.0381623   0.3448378   0.0755099  )
       610           S   tau( 610) = (   0.0060560   0.3463599   0.0373201  )
       611           S   tau( 611) = (   0.0061948   0.3474127   0.1136504  )
       612           Mo  tau( 612) = (  -0.1056027   0.3805909   0.0750498  )
       613           S   tau( 613) = (  -0.0614896   0.3821068   0.0368452  )
       614           S   tau( 614) = (  -0.0613643   0.3829817   0.1131777  )
       615           Mo  tau( 615) = (  -0.1727060   0.4166214   0.0748312  )
       616           S   tau( 616) = (  -0.1286961   0.4182374   0.0365847  )
       617           S   tau( 617) = (  -0.1285213   0.4188011   0.1129057  )
       618           Mo  tau( 618) = (  -0.2396151   0.4527974   0.0748712  )
       619           S   tau( 619) = (  -0.1956528   0.4545848   0.0365871  )
       620           S   tau( 620) = (  -0.1954342   0.4547903   0.1128906  )
       621           S   tau( 621) = (  -0.2625187   0.4909769   0.0368395  )
       622           S   tau( 622) = (  -0.2622937   0.4908059   0.1131312  )
       623           Mo  tau( 623) = (   0.7096641   0.0245473   0.0766223  )
       624           S   tau( 624) = (   0.7545826   0.0258190   0.0392153  )
       625           S   tau( 625) = (   0.7534055   0.0261261   0.1154860  )
       626           Mo  tau( 626) = (   0.6413735   0.0610654   0.0756632  )
       627           S   tau( 627) = (   0.6861050   0.0619622   0.0380529  )
       628           S   tau( 628) = (   0.6852455   0.0623394   0.1143389  )
       629           Mo  tau( 629) = (   0.5732365   0.0979516   0.0750381  )
       630           S   tau( 630) = (   0.6177739   0.0986473   0.0371758  )
       631           S   tau( 631) = (   0.6172935   0.0990161   0.1134650  )
       632           Mo  tau( 632) = (   0.5051780   0.1349670   0.0747521  )
       633           S   tau( 633) = (   0.5495688   0.1356513   0.0366738  )
       634           S   tau( 634) = (   0.5494555   0.1359297   0.1129641  )
       635           Mo  tau( 635) = (   0.4371134   0.1718491   0.0747531  )
       636           S   tau( 636) = (   0.4814089   0.1727038   0.0364863  )
       637           S   tau( 637) = (   0.4815996   0.1728900   0.1127826  )
       638           Mo  tau( 638) = (   0.3689555   0.2083916   0.0749903  )
       639           S   tau( 639) = (   0.4132191   0.2095067   0.0365673  )
       640           S   tau( 640) = (   0.4136476   0.2096241   0.1128684  )
       641           Mo  tau( 641) = (   0.3006460   0.2444514   0.0753563  )
       642           S   tau( 642) = (   0.3449327   0.2458813   0.0368494  )
       643           S   tau( 643) = (   0.3454913   0.2459989   0.1131463  )
       644           Mo  tau( 644) = (   0.2321958   0.2800478   0.0756632  )
       645           S   tau( 645) = (   0.2765425   0.2816946   0.0371758  )
       646           S   tau( 646) = (   0.2771021   0.2819263   0.1134650  )
       647           Mo  tau( 647) = (   0.1637124   0.3153534   0.0756939  )
       648           S   tau( 648) = (   0.2081352   0.3170576   0.0373413  )
       649           S   tau( 649) = (   0.2085301   0.3175129   0.1136250  )
       650           Mo  tau( 650) = (   0.0953703   0.3506266   0.0754089  )
       651           S   tau( 651) = (   0.1398335   0.3522536   0.0371887  )
       652           S   tau( 652) = (   0.1400247   0.3529285   0.1134927  )
       653           Mo  tau( 653) = (   0.0273335   0.3860966   0.0749642  )
       654           S   tau( 654) = (   0.0717232   0.3876100   0.0367952  )
       655           S   tau( 655) = (   0.0718095   0.3883899   0.1131295  )
       656           Mo  tau( 656) = (  -0.0403203   0.4218860   0.0745857  )
       657           S   tau( 657) = (   0.0039294   0.4233429   0.0363822  )
       658           S   tau( 658) = (   0.0040358   0.4240430   0.1127359  )
       659           Mo  tau( 659) = (  -0.1076233   0.4579762   0.0744370  )
       660           S   tau( 660) = (  -0.0635276   0.4594816   0.0361488  )
       661           S   tau( 661) = (  -0.0633207   0.4599549   0.1125032  )
       662           Mo  tau( 662) = (  -0.1746911   0.4942392   0.0745700  )
       663           S   tau( 663) = (  -0.1307204   0.4958926   0.0361963  )
       664           S   tau( 664) = (  -0.1303964   0.4960736   0.1125357  )
       665           Mo  tau( 665) = (  -0.2416767   0.5304958   0.0749889  )
       666           S   tau( 666) = (  -0.1977783   0.5324072   0.0365421  )
       667           S   tau( 667) = (  -0.1973540   0.5322578   0.1128616  )
       668           Mo  tau( 668) = (  -0.3087537   0.5665704   0.0756940  )
       669           S   tau( 669) = (  -0.2648578   0.5688001   0.0371888  )
       670           S   tau( 670) = (  -0.2643689   0.5682970   0.1134927  )
       671           S   tau( 671) = (  -0.3321045   0.6049166   0.0381336  )
       672           S   tau( 672) = (  -0.3316380   0.6040345   0.1144244  )
       673           Mo  tau( 673) = (   0.8426016   0.0300156   0.0789426  )
       674           S   tau( 674) = (   0.8874019   0.0320103   0.0414826  )
       675           S   tau( 675) = (   0.8864652   0.0324011   0.1177252  )
       676           Mo  tau( 676) = (   0.7741472   0.0655170   0.0775930  )
       677           S   tau( 677) = (   0.8189849   0.0670313   0.0401895  )
       678           S   tau( 678) = (   0.8178548   0.0676677   0.1164457  )
       679           Mo  tau( 679) = (   0.7059499   0.1015892   0.0763362  )
       680           S   tau( 680) = (   0.7506773   0.1027103   0.0388391  )
       681           S   tau( 681) = (   0.7496880   0.1033919   0.1151145  )
       682           Mo  tau( 682) = (   0.6379758   0.1381431   0.0753563  )
       683           S   tau( 683) = (   0.6825642   0.1390057   0.0376577  )
       684           S   tau( 684) = (   0.6818434   0.1396256   0.1139469  )
       685           Mo  tau( 685) = (   0.5701475   0.1749708   0.0747728  )
       686           S   tau( 686) = (   0.6145941   0.1757816   0.0368494  )
       687           S   tau( 687) = (   0.6142129   0.1762066   0.1131463  )
       688           Mo  tau( 688) = (   0.5023576   0.2118371   0.0745216  )
       689           S   tau( 689) = (   0.5467384   0.2127299   0.0364173  )
       690           S   tau( 690) = (   0.5466330   0.2129778   0.1127189  )
       691           Mo  tau( 691) = (   0.4344892   0.2484937   0.0745485  )
       692           S   tau( 692) = (   0.4788529   0.2496039   0.0362943  )
       693           S   tau( 693) = (   0.4789710   0.2496849   0.1125989  )
       694           Mo  tau( 694) = (   0.3664538   0.2847786   0.0747728  )
       695           S   tau( 695) = (   0.4108587   0.2861720   0.0364173  )
       696           S   tau( 696) = (   0.4111261   0.2861393   0.1127190  )
       697           Mo  tau( 697) = (   0.2982087   0.3206130   0.0750381  )
       698           S   tau( 698) = (   0.3426915   0.3222601   0.0366738  )
       699           S   tau( 699) = (   0.3429892   0.3222190   0.1129641  )
       700           Mo  tau( 700) = (   0.2298136   0.3561085   0.0751509  )
       701           S   tau( 701) = (   0.2744050   0.3578674   0.0368760  )
       702           S   tau( 702) = (   0.2746049   0.3579434   0.1131575  )
       703           Mo  tau( 703) = (   0.1614155   0.3914811   0.0749889  )
       704           S   tau( 704) = (   0.2060608   0.3931909   0.0368395  )
       705           S   tau( 705) = (   0.2060964   0.3934712   0.1131312  )
       706           Mo  tau( 706) = (   0.0931945   0.4269927   0.0746184  )
       707           S   tau( 707) = (   0.1378110   0.4285425   0.0365421  )
       708           S   tau( 708) = (   0.1377282   0.4289847   0.1128616  )
       709           Mo  tau( 709) = (   0.0252831   0.4628155   0.0742423  )
       710           S   tau( 710) = (   0.0697724   0.4642285   0.0361359  )
       711           S   tau( 711) = (   0.0696923   0.4646925   0.1124889  )
       712           Mo  tau( 712) = (  -0.0422961   0.4989723   0.0740613  )
       713           S   tau( 713) = (   0.0020013   0.5003521   0.0358414  )
       714           S   tau( 714) = (   0.0020512   0.5006787   0.1122135  )
       715           Mo  tau( 715) = (  -0.1096191   0.5353668   0.0741763  )
       716           S   tau( 716) = (  -0.0655073   0.5368199   0.0358229  )
       717           S   tau( 717) = (  -0.0652696   0.5369266   0.1121935  )
       718           Mo  tau( 718) = (  -0.1768122   0.5718211   0.0746185  )
       719           S   tau( 719) = (  -0.1328541   0.5734874   0.0361359  )
       720           S   tau( 720) = (  -0.1324122   0.5733247   0.1124889  )
       721           Mo  tau( 721) = (  -0.2440352   0.6081198   0.0754089  )
       722           S   tau( 722) = (  -0.2001831   0.6101072   0.0367952  )
       723           S   tau( 723) = (  -0.1995507   0.6096425   0.1131295  )
       724           Mo  tau( 724) = (  -0.3114423   0.6440877   0.0765289  )
       725           S   tau( 725) = (  -0.2676234   0.6464663   0.0378347  )
       726           S   tau( 726) = (  -0.2668580   0.6457035   0.1141462  )
       727           Mo  tau( 727) = (  -0.3791733   0.6796132   0.0777937  )
       728           S   tau( 728) = (  -0.3352923   0.6823519   0.0391410  )
       729           S   tau( 729) = (  -0.3345160   0.6813534   0.1154214  )
       730           S   tau( 730) = (  -0.4032367   0.7176866   0.0404518  )
       731           S   tau( 731) = (  -0.4026522   0.7165799   0.1167048  )
       732           Mo  tau( 732) = (   0.9756224   0.0371576   0.0804223  )
       733           Mo  tau( 733) = (   0.9069726   0.0719097   0.0796407  )
       734           S   tau( 734) = (   0.9514703   0.0739417   0.0418592  )
       735           S   tau( 735) = (   0.9510840   0.0747153   0.1180973  )
       736           Mo  tau( 736) = (   0.8385532   0.1070223   0.0783497  )
       737           S   tau( 737) = (   0.8831943   0.1086936   0.0407885  )
       738           S   tau( 738) = (   0.8823984   0.1097047   0.1170338  )
       739           Mo  tau( 739) = (   0.7704453   0.1426495   0.0769906  )
       740           S   tau( 740) = (   0.8150674   0.1439960   0.0394501  )
       741           S   tau( 741) = (   0.8141861   0.1450101   0.1157135  )
       742           Mo  tau( 742) = (   0.7026387   0.1787989   0.0758052  )
       743           S   tau( 743) = (   0.7471870   0.1799114   0.0381782  )
       744           S   tau( 744) = (   0.7464029   0.1807771   0.1144601  )
       745           Mo  tau( 745) = (   0.6350497   0.2153308   0.0749903  )
       746           S   tau( 746) = (   0.6794992   0.2163599   0.0371744  )
       747           S   tau( 747) = (   0.6789471   0.2169498   0.1134699  )
       748           Mo  tau( 748) = (   0.5675535   0.2520336   0.0745485  )
       749           S   tau( 749) = (   0.6119523   0.2531067   0.0365673  )
       750           S   tau( 750) = (   0.6116364   0.2534191   0.1128684  )
       751           Mo  tau( 751) = (   0.4999995   0.2886760   0.0744143  )
       752           S   tau( 752) = (   0.5444101   0.2898986   0.0362943  )
       753           S   tau( 753) = (   0.5442810   0.2899604   0.1125989  )
       754           Mo  tau( 754) = (   0.4322760   0.3250533   0.0745216  )
       755           S   tau( 755) = (   0.4767353   0.3265255   0.0362943  )
       756           S   tau( 756) = (   0.4767464   0.3263828   0.1125989  )
       757           Mo  tau( 757) = (   0.3642943   0.3610458   0.0747521  )
       758           S   tau( 758) = (   0.4088598   0.3627620   0.0364863  )
       759           S   tau( 759) = (   0.4089258   0.3625037   0.1127826  )
       760           Mo  tau( 760) = (   0.2960591   0.3966762   0.0749257  )
       761           S   tau( 761) = (   0.3407459   0.3985460   0.0367154  )
       762           S   tau( 762) = (   0.3407547   0.3982975   0.1130001  )
       763           Mo  tau( 763) = (   0.2276735   0.4321157   0.0748711  )
       764           S   tau( 764) = (   0.2724653   0.4339635   0.0367888  )
       765           S   tau( 765) = (   0.2723226   0.4338590   0.1130704  )
       766           Mo  tau( 766) = (   0.1593218   0.4676207   0.0745699  )
       767           S   tau( 767) = (   0.2041444   0.4692945   0.0365871  )
       768           S   tau( 768) = (   0.2038571   0.4693810   0.1128906  )
       769           Mo  tau( 769) = (   0.0911682   0.5034109   0.0741763  )
       770           S   tau( 770) = (   0.1359045   0.5048737   0.0361963  )
       771           S   tau( 771) = (   0.1355858   0.5050638   0.1125357  )
       772           Mo  tau( 772) = (   0.0232848   0.5395813   0.0739021  )
       773           S   tau( 773) = (   0.0678539   0.5408862   0.0358229  )
       774           S   tau( 774) = (   0.0676427   0.5410388   0.1121934  )
       775           Mo  tau( 775) = (  -0.0443528   0.5760703   0.0739021  )
       776           S   tau( 776) = (  -0.0000005   0.5773512   0.0356714  )
       777           S   tau( 777) = (  -0.0000005   0.5773512   0.1120511  )
       778           Mo  tau( 778) = (  -0.1118332   0.6127227   0.0742423  )
       779           S   tau( 779) = (  -0.0676846   0.6141170   0.0358414  )
       780           S   tau( 780) = (  -0.0674267   0.6139106   0.1122135  )
       781           Mo  tau( 781) = (  -0.1792988   0.6493064   0.0749642  )
       782           S   tau( 782) = (  -0.1353406   0.6509518   0.0363822  )
       783           S   tau( 783) = (  -0.1347874   0.6505096   0.1127359  )
       784           Mo  tau( 784) = (  -0.2468782   0.6856064   0.0760825  )
       785           S   tau( 785) = (  -0.2030731   0.6876016   0.0373202  )
       786           S   tau( 786) = (  -0.2022308   0.6869551   0.1136504  )
       787           Mo  tau( 787) = (  -0.3147025   0.7214478   0.0774809  )
       788           S   tau( 788) = (  -0.2709702   0.7238362   0.0386494  )
       789           S   tau( 789) = (  -0.2699207   0.7230154   0.1149467  )
       790           Mo  tau( 790) = (  -0.3828461   0.7567745   0.0789090  )
       791           S   tau( 791) = (  -0.3390679   0.7594864   0.0401137  )
       792           S   tau( 792) = (  -0.3380019   0.7586235   0.1163773  )
       793           Mo  tau( 793) = (  -0.4513102   0.7916664   0.0800128  )
       794           S   tau( 794) = (  -0.4073351   0.7945056   0.0414687  )
       795           S   tau( 795) = (  -0.4065665   0.7937936   0.1177094  )
       796           S   tau( 796) = (  -0.4757087   0.8290700   0.0422580  )
       797           S   tau( 797) = (  -0.4754992   0.8286755   0.1184893  )
       798           Mo  tau( 798) = (   0.9029928   0.1489105   0.0786162  )
       799           Mo  tau( 799) = (   0.8349423   0.1841965   0.0773751  )
       800           S   tau( 800) = (   0.8793794   0.1857106   0.0396505  )
       801           S   tau( 801) = (   0.8788348   0.1869871   0.1159140  )
       802           Mo  tau( 802) = (   0.7672579   0.2199694   0.0762025  )
       803           S   tau( 803) = (   0.8116756   0.2213184   0.0384922  )
       804           S   tau( 804) = (   0.8110680   0.2223972   0.1147708  )
       805           Mo  tau( 805) = (   0.6998591   0.2561688   0.0752972  )
       806           S   tau( 806) = (   0.7442319   0.2574379   0.0374927  )
       807           S   tau( 807) = (   0.7437044   0.2582089   0.1137765  )
       808           Mo  tau( 808) = (   0.6326175   0.2926286   0.0747531  )
       809           S   tau( 809) = (   0.6769570   0.2939399   0.0368277  )
       810           S   tau( 810) = (   0.6765741   0.2943433   0.1131196  )
       811           Mo  tau( 811) = (   0.5653648   0.3291376   0.0745216  )
       812           S   tau( 812) = (   0.6097297   0.3305622   0.0364863  )
       813           S   tau( 813) = (   0.6094730   0.3306342   0.1127826  )
       814           Mo  tau( 814) = (   0.4979557   0.3655007   0.0745485  )
       815           S   tau( 815) = (   0.5424013   0.3671262   0.0364173  )
       816           S   tau( 816) = (   0.5422393   0.3669110   0.1127189  )
       817           Mo  tau( 817) = (   0.4302674   0.4015503   0.0747531  )
       818           S   tau( 818) = (   0.4748270   0.4034146   0.0365673  )
       819           S   tau( 819) = (   0.4747144   0.4029849   0.1128684  )
       820           Mo  tau( 820) = (   0.3622524   0.4372475   0.0749820  )
       821           S   tau( 821) = (   0.4069620   0.4392938   0.0368277  )
       822           S   tau( 822) = (   0.4068041   0.4387604   0.1131197  )
       823           Mo  tau( 823) = (   0.2939617   0.4727064   0.0750434  )
       824           S   tau( 824) = (   0.3388307   0.4747710   0.0370074  )
       825           S   tau( 825) = (   0.3385314   0.4742936   0.1132906  )
       826           Mo  tau( 826) = (   0.2255482   0.5081486   0.0748312  )
       827           S   tau( 827) = (   0.2705147   0.5100575   0.0369286  )
       828           S   tau( 828) = (   0.2700286   0.5097524   0.1132203  )
       829           Mo  tau( 829) = (   0.1571926   0.5438346   0.0744370  )
       830           S   tau( 830) = (   0.2021437   0.5454544   0.0365847  )
       831           S   tau( 831) = (   0.2015682   0.5453239   0.1129057  )
       832           Mo  tau( 832) = (   0.0890253   0.5799115   0.0740613  )
       833           S   tau( 833) = (   0.1338410   0.5812698   0.0361488  )
       834           S   tau( 834) = (   0.1333276   0.5812123   0.1125032  )
       835           Mo  tau( 835) = (   0.0210664   0.6164018   0.0739021  )
       836           S   tau( 836) = (   0.0656816   0.6175843   0.0358414  )
       837           S   tau( 837) = (   0.0653739   0.6174642   0.1122135  )
       838           Mo  tau( 838) = (  -0.0467309   0.6531696   0.0740613  )
       839           S   tau( 839) = (  -0.0023482   0.6543473   0.0358229  )
       840           S   tau( 840) = (  -0.0023747   0.6540881   0.1121934  )
       841           Mo  tau( 841) = (  -0.1144774   0.6900017   0.0745857  )
       842           S   tau( 842) = (  -0.0703150   0.6913020   0.0361489  )
       843           S   tau( 843) = (  -0.0700085   0.6908861   0.1125032  )
       844           Mo  tau( 844) = (  -0.1822821   0.7266569   0.0755099  )
       845           S   tau( 845) = (  -0.1383426   0.7282244   0.0368452  )
       846           S   tau( 846) = (  -0.1376475   0.7276785   0.1131777  )
       847           Mo  tau( 847) = (  -0.2502546   0.7629061   0.0768171  )
       848           S   tau( 848) = (  -0.2064968   0.7648299   0.0379522  )
       849           S   tau( 849) = (  -0.2054352   0.7641981   0.1142623  )
       850           Mo  tau( 850) = (  -0.3184693   0.7986186   0.0782832  )
       851           S   tau( 851) = (  -0.2747927   0.8008791   0.0393425  )
       852           S   tau( 852) = (  -0.2735143   0.8002947   0.1156228  )
       853           Mo  tau( 853) = (  -0.3869520   0.8337855   0.0796224  )
       854           S   tau( 854) = (  -0.3432167   0.8362758   0.0407572  )
       855           S   tau( 855) = (  -0.3419872   0.8358878   0.1170091  )
       856           Mo  tau( 856) = (   0.8319028   0.2615425   0.0763175  )
       857           Mo  tau( 857) = (   0.7646078   0.2974652   0.0754958  )
       858           S   tau( 858) = (   0.8088317   0.2989219   0.0375781  )
       859           S   tau( 859) = (   0.8085191   0.2998367   0.1138648  )
       860           Mo  tau( 860) = (   0.6975397   0.3336827   0.0749820  )
       861           S   tau( 861) = (   0.7417468   0.3352048   0.0370074  )
       862           S   tau( 862) = (   0.7414831   0.3357026   0.1132906  )
       863           Mo  tau( 863) = (   0.6305261   0.3700152   0.0747521  )
       864           S   tau( 864) = (   0.6747765   0.3716586   0.0367154  )
       865           S   tau( 865) = (   0.6745569   0.3717753   0.1130001  )
       866           Mo  tau( 866) = (   0.5633971   0.4062786   0.0747728  )
       867           S   tau( 867) = (   0.6077381   0.4081167   0.0366738  )
       868           S   tau( 868) = (   0.6075537   0.4078794   0.1129641  )
       869           Mo  tau( 869) = (   0.4959931   0.4423056   0.0749903  )
       870           S   tau( 870) = (   0.5404716   0.4443651   0.0368494  )
       871           S   tau( 871) = (   0.5402941   0.4438225   0.1131463  )
       872           Mo  tau( 872) = (   0.4282216   0.4780132   0.0752972  )
       873           S   tau( 873) = (   0.4728771   0.4802854   0.0371745  )
       874           S   tau( 874) = (   0.4726423   0.4795122   0.1134699  )
       875           Mo  tau( 875) = (   0.3600836   0.5134390   0.0754958  )
       876           S   tau( 876) = (   0.4049362   0.5158065   0.0374928  )
       877           S   tau( 877) = (   0.4045323   0.5149643   0.1137765  )
       878           Mo  tau( 878) = (   0.2916833   0.5487763   0.0754144  )
       879           S   tau( 879) = (   0.3367101   0.5510096   0.0375782  )
       880           S   tau( 880) = (   0.3360742   0.5502815   0.1138648  )
       881           Mo  tau( 881) = (   0.2231999   0.5842772   0.0750498  )
       882           S   tau( 882) = (   0.2682939   0.5862010   0.0373221  )
       883           S   tau( 883) = (   0.2674895   0.5857032   0.1136269  )
       884           Mo  tau( 884) = (   0.1547961   0.6201657   0.0745857  )
       885           S   tau( 885) = (   0.1998306   0.6217223   0.0368452  )
       886           S   tau( 886) = (   0.1990102   0.6213932   0.1131777  )
       887           Mo  tau( 887) = (   0.0865484   0.6565153   0.0742423  )
       888           S   tau( 888) = (   0.1314095   0.6577587   0.0363822  )
       889           S   tau( 889) = (   0.1307500   0.6575008   0.1127359  )
       890           Mo  tau( 890) = (   0.0184492   0.6932758   0.0741763  )
       891           S   tau( 891) = (   0.0630801   0.6943376   0.0361359  )
       892           S   tau( 892) = (   0.0627183   0.6940363   0.1124889  )
       893           Mo  tau( 893) = (  -0.0495710   0.7302426   0.0744370  )
       894           S   tau( 894) = (  -0.0051858   0.7312871   0.0361963  )
       895           S   tau( 895) = (  -0.0051910   0.7309161   0.1125357  )
       896           Mo  tau( 896) = (  -0.1175989   0.7671854   0.0750498  )
       897           S   tau( 897) = (  -0.0734493   0.7683616   0.0365847  )
       898           S   tau( 898) = (  -0.0730486   0.7679284   0.1129057  )
       899           Mo  tau( 899) = (  -0.1857324   0.8038412   0.0760441  )
       900           S   tau( 900) = (  -0.1418119   0.8052760   0.0373221  )
       901           S   tau( 901) = (  -0.1409787   0.8048283   0.1136269  )
       902           Mo  tau( 902) = (  -0.2540339   0.8400033   0.0773178  )
       903           S   tau( 903) = (  -0.2103040   0.8417676   0.0384143  )
       904           S   tau( 904) = (  -0.2090763   0.8413947   0.1147034  )
       905           Mo  tau( 905) = (   0.7623933   0.3750948   0.0750434  )
       906           Mo  tau( 906) = (   0.6955006   0.4112935   0.0749257  )
       907           S   tau( 907) = (   0.7395892   0.4130826   0.0367888  )
       908           S   tau( 908) = (   0.7395701   0.4132585   0.1130705  )
       909           Mo  tau( 909) = (   0.6285531   0.4474634   0.0750381  )
       910           S   tau( 910) = (   0.6727182   0.4494508   0.0368760  )
       911           S   tau( 911) = (   0.6726841   0.4492397   0.1131575  )
       912           Mo  tau( 912) = (   0.5613766   0.4834335   0.0753563  )
       913           S   tau( 913) = (   0.6056819   0.4856861   0.0371758  )
       914           S   tau( 914) = (   0.6056027   0.4850856   0.1134650  )
       915           Mo  tau( 915) = (   0.4938362   0.5191053   0.0758053  )
       916           S   tau( 916) = (   0.5383354   0.5216169   0.0376578  )
       917           S   tau( 917) = (   0.5381590   0.5206828   0.1139469  )
       918           Mo  tau( 918) = (   0.4258719   0.5544819   0.0762026  )
       919           S   tau( 919) = (   0.4705986   0.5571290   0.0381783  )
       920           S   tau( 920) = (   0.4702409   0.5560171   0.1144601  )
       921           Mo  tau( 921) = (   0.3575461   0.5896795   0.0763176  )
       922           S   tau( 922) = (   0.4024947   0.5922742   0.0384922  )
       923           S   tau( 923) = (   0.4018643   0.5912086   0.1147708  )
       924           Mo  tau( 924) = (   0.2890115   0.6249547   0.0760441  )
       925           S   tau( 925) = (   0.3341425   0.6272710   0.0384143  )
       926           S   tau( 926) = (   0.3332058   0.6263942   0.1147034  )
       927           Mo  tau( 927) = (   0.2204428   0.6605588   0.0755099  )
       928           S   tau( 928) = (   0.2656089   0.6624427   0.0379522  )
       929           S   tau( 929) = (   0.2645309   0.6618393   0.1142622  )
       930           Mo  tau( 930) = (   0.1519637   0.6966504   0.0749642  )
       931           S   tau( 931) = (   0.1970154   0.6980919   0.0373201  )
       932           S   tau( 932) = (   0.1960343   0.6976857   0.1136504  )
       933           Mo  tau( 933) = (   0.0836161   0.7332396   0.0746184  )
       934           S   tau( 934) = (   0.1284582   0.7343363   0.0367952  )
       935           S   tau( 935) = (   0.1277396   0.7340210   0.1131295  )
       936           Mo  tau( 936) = (   0.0153676   0.7701936   0.0745699  )
       937           S   tau( 937) = (   0.0599657   0.7711037   0.0365421  )
       938           S   tau( 938) = (   0.0596242   0.7708109   0.1128616  )
       939           Mo  tau( 939) = (  -0.0528438   0.8072833   0.0748312  )
       940           S   tau( 940) = (  -0.0084932   0.8081742   0.0365871  )
       941           S   tau( 941) = (  -0.0084245   0.8078821   0.1128906  )
       942           Mo  tau( 942) = (  -0.1210959   0.8442442   0.0754144  )
       943           S   tau( 943) = (  -0.0769802   0.8452711   0.0369286  )
       944           S   tau( 944) = (  -0.0764729   0.8450027   0.1132203  )
       945           Mo  tau( 945) = (   0.6934906   0.4889476   0.0751510  )
       946           Mo  tau( 946) = (   0.6264290   0.5249148   0.0756633  )
       947           S   tau( 947) = (   0.6705108   0.5272470   0.0373414  )
       948           S   tau( 948) = (   0.6707076   0.5266774   0.1136250  )
       949           Mo  tau( 949) = (   0.5590462   0.5605777   0.0763362  )
       950           S   tau( 950) = (   0.6032866   0.5632050   0.0380530  )
       951           S   tau( 951) = (   0.6033896   0.5622721   0.1143389  )
       952           Mo  tau( 952) = (   0.4912392   0.5959023   0.0769906  )
       953           S   tau( 953) = (   0.5357115   0.5987523   0.0388391  )
       954           S   tau( 954) = (   0.5356159   0.5975547   0.1151145  )
       955           Mo  tau( 955) = (   0.4230099   0.6309848   0.0773751  )
       956           S   tau( 956) = (   0.4677620   0.6338728   0.0394501  )
[...]
     atom  803 type  2   force =     0.00000366   -0.00000388    0.00000059
     atom  804 type  2   force =     0.00000368   -0.00000357    0.00000658
     atom  805 type  1   force =     0.00000762   -0.00000418    0.00000704
     atom  806 type  2   force =     0.00000227   -0.00000227    0.00000048
     atom  807 type  2   force =     0.00000206   -0.00000223    0.00000370
     atom  808 type  1   force =     0.00000407    0.00000126    0.00001887
     atom  809 type  2   force =     0.00000195   -0.00000105   -0.00000216
     atom  810 type  2   force =     0.00000179   -0.00000093   -0.00000049
     atom  811 type  1   force =    -0.00000003    0.00000230    0.00001699
     atom  812 type  2   force =     0.00000064    0.00000061   -0.00000458
     atom  813 type  2   force =     0.00000043    0.00000099   -0.00000029
     atom  814 type  1   force =    -0.00000116    0.00000276    0.00001772
     atom  815 type  2   force =     0.00000062    0.00000077   -0.00000518
     atom  816 type  2   force =     0.00000043    0.00000065   -0.00000015
     atom  817 type  1   force =    -0.00000328    0.00000303    0.00001893
     atom  818 type  2   force =     0.00000059    0.00000224   -0.00000388
     atom  819 type  2   force =     0.00000064    0.00000217   -0.00000090
     atom  820 type  1   force =     0.00000086    0.00000594    0.00000605
     atom  821 type  2   force =    -0.00000026    0.00000220   -0.00000213
     atom  822 type  2   force =    -0.00000032    0.00000203   -0.00000042
     atom  823 type  1   force =     0.00000223    0.00000627    0.00000897
     atom  824 type  2   force =     0.00000100    0.00000166   -0.00000094
     atom  825 type  2   force =     0.00000068    0.00000148    0.00000238
     atom  826 type  1   force =     0.00000099    0.00000432    0.00001245
     atom  827 type  2   force =     0.00000081    0.00000240   -0.00000163
     atom  828 type  2   force =     0.00000059    0.00000230    0.00000348
     atom  829 type  1   force =     0.00000230    0.00000236    0.00000086
     atom  830 type  2   force =     0.00000089    0.00000170   -0.00000391
     atom  831 type  2   force =     0.00000052    0.00000183    0.00000374
     atom  832 type  1   force =     0.00000325    0.00000244   -0.00000485
     atom  833 type  2   force =     0.00000116    0.00000069   -0.00000550
     atom  834 type  2   force =     0.00000084    0.00000129    0.00000537
     atom  835 type  1   force =     0.00000075    0.00000096   -0.00000580
     atom  836 type  2   force =     0.00000147    0.00000067   -0.00000618
     atom  837 type  2   force =     0.00000101    0.00000088    0.00000626
     atom  838 type  1   force =    -0.00000362    0.00000205   -0.00000480
     atom  839 type  2   force =    -0.00000045    0.00000029   -0.00000649
     atom  840 type  2   force =    -0.00000094   -0.00000007    0.00000727
     atom  841 type  1   force =    -0.00000491    0.00000148    0.00000036
     atom  842 type  2   force =    -0.00000078    0.00000061   -0.00000533
     atom  843 type  2   force =    -0.00000115    0.00000002    0.00000521
     atom  844 type  1   force =    -0.00000901    0.00000254    0.00001057
     atom  845 type  2   force =    -0.00000307    0.00000095   -0.00000165
     atom  846 type  2   force =    -0.00000300    0.00000068    0.00000354
     atom  847 type  1   force =    -0.00001073    0.00000382    0.00000767
     atom  848 type  2   force =    -0.00000437    0.00000154    0.00000138
     atom  849 type  2   force =    -0.00000427    0.00000101    0.00000429
     atom  850 type  1   force =    -0.00001043    0.00000561    0.00000125
     atom  851 type  2   force =    -0.00000389    0.00000126    0.00000144
     atom  852 type  2   force =    -0.00000330    0.00000087   -0.00000045
     atom  853 type  1   force =    -0.00001241    0.00000148   -0.00002369
     atom  854 type  2   force =    -0.00000486    0.00000172    0.00000631
     atom  855 type  2   force =    -0.00000431    0.00000147   -0.00001257
     atom  856 type  1   force =     0.00000840   -0.00001043    0.00000767
     atom  857 type  1   force =     0.00000708   -0.00000799   -0.00000167
     atom  858 type  2   force =     0.00000271   -0.00000278    0.00000120
     atom  859 type  2   force =     0.00000281   -0.00000244    0.00000415
     atom  860 type  1   force =     0.00000473   -0.00000380    0.00000599
     atom  861 type  2   force =     0.00000113   -0.00000160   -0.00000110
     atom  862 type  2   force =     0.00000114   -0.00000122    0.00000239
     atom  863 type  1   force =     0.00000095    0.00000177    0.00001254
     atom  864 type  2   force =     0.00000010   -0.00000111   -0.00000286
     atom  865 type  2   force =    -0.00000004   -0.00000057    0.00000122
     atom  866 type  1   force =    -0.00000088    0.00000407    0.00001693
     atom  867 type  2   force =     0.00000055    0.00000061   -0.00000287
     atom  868 type  2   force =     0.00000030    0.00000133   -0.00000013
     atom  869 type  1   force =    -0.00000268    0.00000651    0.00002295
     atom  870 type  2   force =    -0.00000043    0.00000229   -0.00000133
     atom  871 type  2   force =    -0.00000040    0.00000260   -0.00000157
     atom  872 type  1   force =    -0.00000001    0.00000884    0.00000712
     atom  873 type  2   force =     0.00000048    0.00000300    0.00000094
     atom  874 type  2   force =     0.00000080    0.00000312    0.00000007
     atom  875 type  1   force =     0.00000344    0.00000978   -0.00000164
     atom  876 type  2   force =     0.00000085    0.00000311    0.00000053
     atom  877 type  2   force =     0.00000088    0.00000291    0.00000375
     atom  878 type  1   force =     0.00000382    0.00000852    0.00001127
     atom  879 type  2   force =     0.00000094    0.00000352    0.00000113
     atom  880 type  2   force =     0.00000060    0.00000343    0.00000435
     atom  881 type  1   force =     0.00000449    0.00000623    0.00001213
     atom  882 type  2   force =     0.00000189    0.00000297    0.00000052
     atom  883 type  2   force =     0.00000155    0.00000302    0.00000335
     atom  884 type  1   force =     0.00000394    0.00000381    0.00000031
     atom  885 type  2   force =     0.00000223    0.00000214   -0.00000152
     atom  886 type  2   force =     0.00000199    0.00000219    0.00000342
     atom  887 type  1   force =     0.00000542    0.00000185   -0.00000268
     atom  888 type  2   force =     0.00000183    0.00000144   -0.00000378
     atom  889 type  2   force =     0.00000148    0.00000167    0.00000409
     atom  890 type  1   force =     0.00000018    0.00000129   -0.00000083
     atom  891 type  2   force =     0.00000239    0.00000013   -0.00000625
     atom  892 type  2   force =     0.00000175    0.00000000    0.00000576
     atom  893 type  1   force =    -0.00000300    0.00000059    0.00000088
     atom  894 type  2   force =    -0.00000045    0.00000061   -0.00000584
     atom  895 type  2   force =    -0.00000096    0.00000022    0.00000568
     atom  896 type  1   force =    -0.00000760    0.00000075    0.00001210
     atom  897 type  2   force =    -0.00000170   -0.00000016   -0.00000389
     atom  898 type  2   force =    -0.00000161   -0.00000054    0.00000367
     atom  899 type  1   force =    -0.00001260   -0.00000002    0.00001546
     atom  900 type  2   force =    -0.00000366    0.00000010    0.00000037
     atom  901 type  2   force =    -0.00000353   -0.00000022    0.00000345
     atom  902 type  1   force =    -0.00001183    0.00000105    0.00000592
     atom  903 type  2   force =    -0.00000503   -0.00000012    0.00000169
     atom  904 type  2   force =    -0.00000435   -0.00000035    0.00000439
     atom  905 type  1   force =     0.00000432   -0.00000498    0.00000890
     atom  906 type  1   force =     0.00000090   -0.00000084    0.00000589
     atom  907 type  2   force =     0.00000085   -0.00000054   -0.00000359
     atom  908 type  2   force =     0.00000075   -0.00000028    0.00000365
     atom  909 type  1   force =    -0.00000110    0.00000507    0.00000968
     atom  910 type  2   force =    -0.00000089    0.00000155   -0.00000226
     atom  911 type  2   force =    -0.00000086    0.00000195    0.00000305
     atom  912 type  1   force =    -0.00000284    0.00000803    0.00001333
     atom  913 type  2   force =    -0.00000014    0.00000268   -0.00000019
     atom  914 type  2   force =    -0.00000018    0.00000355    0.00000263
     atom  915 type  1   force =     0.00000110    0.00000990    0.00000105
     atom  916 type  2   force =    -0.00000044    0.00000408    0.00000124
     atom  917 type  2   force =    -0.00000066    0.00000464    0.00000414
     atom  918 type  1   force =     0.00000416    0.00001252   -0.00000323
     atom  919 type  2   force =     0.00000057    0.00000409    0.00000057
     atom  920 type  2   force =     0.00000032    0.00000419    0.00000789
     atom  921 type  1   force =     0.00000494    0.00001288    0.00000783
     atom  922 type  2   force =     0.00000186    0.00000536    0.00000067
     atom  923 type  2   force =     0.00000159    0.00000522    0.00000661
     atom  924 type  1   force =     0.00000634    0.00001072    0.00001554
     atom  925 type  2   force =     0.00000251    0.00000458    0.00000175
     atom  926 type  2   force =     0.00000197    0.00000413    0.00000441
     atom  927 type  1   force =     0.00000637    0.00000636    0.00001066
     atom  928 type  2   force =     0.00000344    0.00000290    0.00000126
     atom  929 type  2   force =     0.00000297    0.00000306    0.00000449
     atom  930 type  1   force =     0.00000676    0.00000286    0.00000535
     atom  931 type  2   force =     0.00000297    0.00000182    0.00000152
     atom  932 type  2   force =     0.00000241    0.00000170    0.00000419
     atom  933 type  1   force =     0.00000534   -0.00000005    0.00000590
     atom  934 type  2   force =     0.00000273    0.00000003   -0.00000225
     atom  935 type  2   force =     0.00000228    0.00000010    0.00000414
     atom  936 type  1   force =     0.00000111   -0.00000053    0.00000670
     atom  937 type  2   force =     0.00000161   -0.00000004   -0.00000449
     atom  938 type  2   force =     0.00000128   -0.00000003    0.00000409
     atom  939 type  1   force =    -0.00000400   -0.00000136    0.00001245
     atom  940 type  2   force =    -0.00000036   -0.00000094   -0.00000473
     atom  941 type  2   force =    -0.00000032   -0.00000102    0.00000381
     atom  942 type  1   force =    -0.00000939   -0.00000091    0.00001126
     atom  943 type  2   force =    -0.00000228   -0.00000052   -0.00000169
     atom  944 type  2   force =    -0.00000206   -0.00000064    0.00000352
     atom  945 type  1   force =    -0.00000141    0.00000530    0.00001152
     atom  946 type  1   force =    -0.00000252    0.00000944    0.00001121
     atom  947 type  2   force =    -0.00000127    0.00000314    0.00000023
     atom  948 type  2   force =    -0.00000123    0.00000314    0.00000462
     atom  949 type  1   force =    -0.00000056    0.00001145   -0.00000112
     atom  950 type  2   force =    -0.00000094    0.00000412    0.00000128
     atom  951 type  2   force =    -0.00000104    0.00000455    0.00000549
     atom  952 type  1   force =    -0.00000051    0.00001435   -0.00000104
     atom  953 type  2   force =     0.00000000    0.00000479    0.00000035
     atom  954 type  2   force =     0.00000006    0.00000421    0.00000555
     atom  955 type  1   force =     0.00000071    0.00001495    0.00000496
     atom  956 type  2   force =    -0.00000031    0.00000526    0.00000087
     atom  957 type  2   force =     0.00000015    0.00000543    0.00000126
     atom  958 type  1   force =     0.00000699    0.00000958    0.00000607
     atom  959 type  2   force =     0.00000263    0.00000452    0.00000228
     atom  960 type  2   force =     0.00000196    0.00000395   -0.00000367
     atom  961 type  1   force =     0.00000888    0.00000756    0.00000769
     atom  962 type  2   force =     0.00000329    0.00000272    0.00000151
     atom  963 type  2   force =     0.00000264    0.00000235   -0.00000042
     atom  964 type  1   force =     0.00001072    0.00000518    0.00001547
     atom  965 type  2   force =     0.00000420    0.00000199    0.00000120
     atom  966 type  2   force =     0.00000373    0.00000195    0.00000428
     atom  967 type  1   force =     0.00000942    0.00000108    0.00000824
     atom  968 type  2   force =     0.00000430    0.00000083    0.00000162
     atom  969 type  2   force =     0.00000397    0.00000067    0.00000624
     atom  970 type  1   force =     0.00000650   -0.00000039    0.00001215
     atom  971 type  2   force =     0.00000282    0.00000006   -0.00000078
     atom  972 type  2   force =     0.00000270    0.00000033    0.00000443
     atom  973 type  1   force =    -0.00000002   -0.00000202    0.00001126
     atom  974 type  2   force =     0.00000224   -0.00000076   -0.00000282
     atom  975 type  2   force =     0.00000210   -0.00000065    0.00000357
     atom  976 type  1   force =    -0.00000269    0.00001141    0.00000634
     atom  977 type  1   force =    -0.00000340    0.00001293   -0.00000006
     atom  978 type  2   force =    -0.00000146    0.00000512    0.00000178
     atom  979 type  2   force =    -0.00000089    0.00000452    0.00000131
     atom  980 type  1   force =    -0.00000396    0.00001427   -0.00000753
     atom  981 type  2   force =    -0.00000046    0.00000547    0.00000476
     atom  982 type  2   force =     0.00000018    0.00000539   -0.00000672
     atom  983 type  1   force =     0.00000475    0.00001189   -0.00001824
     atom  984 type  2   force =     0.00000033    0.00000482    0.00000612
     atom  985 type  2   force =     0.00000075    0.00000499   -0.00001194
     atom  986 type  1   force =     0.00001004    0.00000618    0.00000108
     atom  987 type  2   force =     0.00000384    0.00000360    0.00000629
     atom  988 type  2   force =     0.00000334    0.00000323   -0.00001255
     atom  989 type  1   force =     0.00001183    0.00000238    0.00001022
     atom  990 type  2   force =     0.00000375    0.00000282    0.00000473
     atom  991 type  2   force =     0.00000376    0.00000248   -0.00000778
     atom  992 type  1   force =     0.00001233    0.00000022    0.00001343
     atom  993 type  2   force =     0.00000528    0.00000044    0.00000179
     atom  994 type  2   force =     0.00000517    0.00000006    0.00000133
     atom  995 type  1   force =     0.00000940   -0.00000014    0.00001363
     atom  996 type  2   force =     0.00000455   -0.00000011    0.00000165
     atom  997 type  2   force =     0.00000415   -0.00000011    0.00000571
     atom  998 type  1   force =    -0.00000305    0.00001035   -0.00002226
     atom  999 type  1   force =    -0.00000173    0.00001300   -0.00003716
     atom 1000 type  2   force =    -0.00000041    0.00000369    0.00000660
     atom 1001 type  2   force =    -0.00000095    0.00000378   -0.00001353
     atom 1002 type  1   force =     0.00000755    0.00000996   -0.00002375
     atom 1003 type  2   force =     0.00000115    0.00000226    0.00000728
     atom 1004 type  2   force =     0.00000085    0.00000295   -0.00001411
     atom 1005 type  1   force =     0.00001050    0.00000292   -0.00001379
     atom 1006 type  2   force =     0.00000320    0.00000073    0.00000733
     atom 1007 type  2   force =     0.00000371    0.00000122   -0.00001624
     atom 1008 type  1   force =     0.00001296   -0.00000169    0.00000426
     atom 1009 type  2   force =     0.00000467   -0.00000017    0.00000534
     atom 1010 type  2   force =     0.00000473   -0.00000014   -0.00000923
     atom 1011 type  1   force =     0.00000330    0.00000494   -0.00001971
     atom 1012 type  1   force =     0.00001052    0.00000272   -0.00003095
     atom 1013 type  2   force =     0.00000160   -0.00000029    0.00000632
     atom 1014 type  2   force =     0.00000183   -0.00000007   -0.00001397

     Total force =     0.009731     Total SCF correction =     0.000357

     Writing all to output data dir ./tmp/bilayer.save/
 
     init_run     :      4.73s CPU      8.80s WALL (       1 calls)
     electrons    :    747.12s CPU    930.90s WALL (       1 calls)
     forces       :      2.90s CPU      3.58s WALL (       1 calls)

     Called by init_run:
     wfcinit      :      0.44s CPU      1.76s WALL (       1 calls)
                                        1.76s GPU  (       1 calls)
     potinit      :      2.26s CPU      2.55s WALL (       1 calls)
     hinit0       :      1.32s CPU      1.78s WALL (       1 calls)

     Called by electrons:
     c_bands      :    704.09s CPU    884.75s WALL (       9 calls)
     sum_band     :     26.87s CPU     28.50s WALL (       9 calls)
     v_of_rho     :     16.28s CPU     17.45s WALL (      10 calls)
     v_h          :      0.13s CPU      0.17s WALL (      10 calls)
     v_xc         :     16.06s CPU     17.19s WALL (      10 calls)
     mix_rho      :      1.94s CPU      2.30s WALL (       9 calls)
     vdW_kernel   :      0.66s CPU      0.67s WALL (       1 calls)

     Called by c_bands:
     init_us_2    :      0.51s CPU      0.59s WALL (      17 calls)
     init_us_2:gp :      0.51s CPU      0.59s WALL (      17 calls)
     regterg      :    701.97s CPU    881.62s WALL (       8 calls)

     Called by sum_band:
     sum_band:wei :      0.01s CPU      0.02s WALL (       9 calls)
                                        0.02s GPU  (       9 calls)
     sum_band:loo :     26.58s CPU     27.77s WALL (       9 calls)
                                       27.76s GPU  (       9 calls)
     sum_band:buf :      0.00s CPU      0.00s WALL (       9 calls)
                                        0.00s GPU  (       9 calls)
     sum_band:ini :      0.27s CPU      0.34s WALL (       9 calls)
                                        0.34s GPU  (       9 calls)

     Called by *egterg:
     rdiaghg      :    624.52s CPU    770.87s WALL (      49 calls)
                                      770.40s GPU  (      49 calls)
     regterg:over :     11.64s CPU     16.13s WALL (      41 calls)
     regterg:upda :      2.39s CPU      2.42s WALL (      41 calls)
     regterg:last :      3.61s CPU      3.62s WALL (      16 calls)
     h_psi        :     52.72s CPU     75.39s WALL (      49 calls)
                                       75.33s GPU  (      49 calls)
     g_psi        :      0.00s CPU      0.06s WALL (      41 calls)
                                        0.06s GPU  (      41 calls)

     Called by h_psi:
     h_psi:calbec :     11.21s CPU     17.66s WALL (      49 calls)
                                       17.66s GPU  (      49 calls)
     vloc_psi     :     37.50s CPU     53.68s WALL (      49 calls)
                                       53.63s GPU  (      49 calls)
     add_vuspsi   :      0.26s CPU      4.01s WALL (      49 calls)
                                        4.01s GPU  (      49 calls)

     General routines
     calbec       :     13.15s CPU     20.18s WALL (      53 calls)
     fft          :      5.87s CPU      6.64s WALL (     581 calls)
                                        0.27s GPU  (      52 calls)
     ffts         :      1.47s CPU      2.02s WALL (     143 calls)
     fftw         :     60.71s CPU     80.69s WALL (   30941 calls)
                                       78.98s GPU  (   30941 calls)
     davcio       :      0.03s CPU      1.22s WALL (     161 calls)
 
     Parallel routines
 
     PWSCF        :  12m41.20s CPU  16m36.87s WALL

 
   This run was terminated on:  22:47:58  18Dec2023            

=------------------------------------------------------------------------------=
   JOB DONE.
=------------------------------------------------------------------------------=
