LAMMPS data file via write_data, version 27 Oct 2021, timestep = 86

12 atoms
4 atom types

0 8.059030207162023 xlo xhi
0 5.6794138418255855 ylo yhi
0 30.10888 zlo zhi
4.440892098500626e-16 0 0 xy xz yz

Masses

1 30.97376199003218
2 30.97376199003218
3 30.97376199003218
4 30.97376199003218

Atoms # atomic

1 4 0.23837432426345143 2.5066199004319647 29.068886398148315 0 0 0
2 1 0.23837432413286924 5.346326821844446 1.0399936021557468 0 0 0
3 2 2.447969079153476 5.065931884975337 1.039993602191858 0 0 0
4 3 2.4479690792937965 2.2262249640085194 29.06888639813556 0 0 0
5 4 2.9247177261803743 4.399757848449825 29.068886398228464 0 0 0
6 1 2.924717726933731 1.560050927379426 1.0399936019469769 0 0 0
7 2 5.1343124819693395 1.2796559901214284 1.039993601665196 0 0 0
8 4 5.611061129460373 0.6134819533604385 29.06888639780742 0 0 0
9 3 5.134312481225254 4.119362911110396 29.068886397899334 0 0 0
10 1 5.611061128890516 3.453188874489009 1.0399936017341793 0 0 0
11 2 7.820655883915093 3.172793937496281 1.0399936019587483 0 0 0
12 3 7.8206558844642755 0.3330870160023506 29.068886398128203 0 0 0

Velocities

1 3.360318984337575e-06 -7.559934111953417e-06 3.1221858993245273e-06
2 3.3604020065993325e-06 -7.560317200389405e-06 -3.122304270066548e-06
3 -3.3601905822079406e-06 7.560000434062974e-06 -3.1222899648002464e-06
4 -3.3602967608264597e-06 7.560171631459856e-06 3.1222176382575655e-06
5 3.360664011220035e-06 -7.5603584073448255e-06 3.122183650691316e-06
6 3.3600680368874092e-06 -7.560360700972383e-06 -3.1221821103173346e-06
7 -3.360568918005912e-06 7.560223200270126e-06 -3.1221461879410537e-06
8 3.3599559042259576e-06 -7.560079455317262e-06 3.1222771880915816e-06
9 -3.359976954418655e-06 7.560189427938114e-06 3.122232721325224e-06
10 3.3604316776336866e-06 -7.5602591657922835e-06 -3.1221823017212126e-06
11 -3.360183923541406e-06 7.560145273649172e-06 -3.12221058579501e-06
12 -3.3606234819058225e-06 7.560579074402391e-06 3.1222183229588884e-06
