LAMMPS data file via write_data, version 27 Oct 2021, timestep = 88

24 atoms
8 atom types

0 8.059030207162023 xlo xhi
0 5.6794138418255855 ylo yhi
0 30.10888 zlo zhi
1.3112768214833054e-16 0 0 xy xz yz

Masses

1 30.97376199003218
2 30.97376199003218
3 30.97376199003218
4 30.97376199003218
5 30.97376199003218
6 30.97376199003218
7 30.97376199003218
8 30.97376199003218

Atoms # atomic

1 4 0.23994977471121595 2.5062299622224393 26.357198214594632 0 0 0
2 1 0.23781137296205188 5.345542156704486 28.4336932457474 0 0 0
3 2 2.4467362747017045 5.0679502789724555 28.43513530895608 0 0 0
4 3 2.4495702905690866 2.2264327565213113 26.363519723400202 0 0 0
5 4 2.924999395083742 4.399865764273919 26.358272038925136 0 0 0
6 1 2.925015950780207 1.5622560061690345 28.44372933139971 0 0 0
7 2 5.134014258737981 1.2774509112562396 28.443729331471843 0 0 0
8 4 5.609459918946793 0.6132741608831169 26.363519723473367 0 0 0
9 3 5.1340308144252536 4.119254994959974 26.35827203896295 0 0 0
10 1 5.612293934838919 3.451170480280753 28.435135308998593 0 0 0
11 2 7.8212188365852695 3.1735786024994743 28.43369324567948 0 0 0
12 3 7.819080434798232 0.33347695516174747 26.35719821465526 0 0 0
13 6 0.23994977227240355 3.1731838792619307 3.751681785407358 0 0 0
14 6 5.6094599165118195 5.0661396805978205 3.7453602765186296 0 0 0
15 7 2.925015948322097 4.117157835312152 1.6651506686162967 0 0 0
16 8 5.134014256279105 4.401962930224699 1.6651506685168536 0 0 0
17 5 2.4495702881300745 3.4529810849556455 3.7453602766100453 0 0 0
18 6 2.9249993926310673 1.2795480772003787 3.7506079610589436 0 0 0
19 7 0.23781137049411624 0.3338716847759189 1.6751867542318508 0 0 0
20 8 2.4467362722373216 0.6114635625135854 1.6737446910146787 0 0 0
21 5 7.8190804323631395 5.345936886323509 3.7516817853294255 0 0 0
22 7 5.6122939323688 2.228243361204062 1.6737446910384 0 0 0
23 8 7.821218834112336 2.5058352389799623 1.6751867543288386 0 0 0
24 5 5.134030811972936 1.5601588465174243 3.750607961064072 0 0 0

Velocities

1 -0.004147468066823773 0.0005566301211184021 -0.022489451068744448
2 0.001247230572412848 -0.0007636577617315412 -0.018840109648078238
3 3.8184746595289266e-05 -0.009309795253566303 -0.002882352256294188
4 -0.004319003062290534 -0.004558581652768657 -0.022583943640035704
5 -0.00020892408596140068 -0.005114702294662963 -0.0012222646965734532
6 -0.0013399081640695296 -0.008472188507000352 -0.023577628865832482
7 0.0013399090132748806 0.008472188746529864 -0.02357762899403167
8 0.004319003809558339 0.004558581904556759 -0.02258394378729564
9 0.00020892468797929995 0.005114702570409677 -0.0012222648137751517
10 -3.8184121817259295e-05 0.009309795556872485 -0.0028823523910212895
11 -0.001247229949712494 0.0007636582470055059 -0.01884010965275676
12 0.004147468822219925 -0.0005566298441103106 -0.022489451109952242
13 -0.004147468762333796 -0.0005566301583872026 0.022489451306949827
14 0.0043190030177243455 -0.004558581946954381 0.022583943668340985
15 -0.0013399090810983078 0.008472188438381528 0.023577629026325896
16 0.0013399081382845044 -0.008472188907119742 0.023577628879315166
17 -0.004319003758081493 0.004558581834371857 0.022583943861288217
18 -0.0002089245846113341 0.005114702521563843 0.001222264557709519
19 0.0012472297967068965 0.0007636577670709295 0.018840109861192375
20 3.818394640973172e-05 0.009309795220742588 0.0028823522230253485
21 0.0041474680237475504 0.0005566297777712389 0.02248945130848786
22 -3.8184646198460544e-05 -0.009309795643175543 0.0028823520241962395
23 -0.0012472304883733626 -0.0007636582008355264 0.0188401097943056
24 0.000208924196457921 -0.005114702536080789 0.0012222644132532216
