LAMMPS (27 Oct 2021)
  using 64 OpenMP thread(s) per MPI task
units metal
atom_style atomic
atom_modify map array sort 0 0
boundary p p p
box tilt large
region cell prism    0 8.059030207162023 0 5.6794138418255855 0 30.10888     4.440892098500626e-16 0.0 0.0     units box
create_box 4 cell
Created triclinic box = (0.0000000 0.0000000 0.0000000) to (8.0590302 5.6794138 30.108880) with tilt (4.4408921e-16 0.0000000 0.0000000)
  1 by 1 by 1 MPI processor grid
echo none
Created 12 atoms
  using lattice units in triclinic box = (0.0000000 0.0000000 0.0000000) to (8.0590302 5.6794138 30.108880) with tilt (4.4408921e-16 0.0000000 0.0000000)
  create_atoms CPU = 0.004 seconds
Setting atom values ...
  1 settings made for type
Setting atom values ...
  1 settings made for type
Setting atom values ...
  1 settings made for type
Setting atom values ...
  1 settings made for type
Setting atom values ...
  1 settings made for type
Setting atom values ...
  1 settings made for type
Setting atom values ...
  1 settings made for type
Setting atom values ...
  1 settings made for type
Setting atom values ...
  1 settings made for type
Setting atom values ...
  1 settings made for type
Setting atom values ...
  1 settings made for type
Setting atom values ...
  1 settings made for type
pair_style sw
pair_coeff * * bp.sw T T B B
neighbor        2.0 bin
neigh_modify every 1 delay 0 check yes
mass 1 30.973761990032176782960959826596
mass 2 30.973761990032176782960959826596
mass 3 30.973761990032176782960959826596
mass 4 30.973761990032176782960959826596
variable pxx equal pxx
variable pyy equal pyy
variable pzz equal pzz
variable pxy equal pxy
variable pxz equal pxz
variable pyz equal pyz
thermo_style custom pe pxx emol ecoul
variable fx atom fx
variable fy atom fy
variable fz atom fz
variable pe equal pe
neigh_modify delay 0 every 1 check yes
echo none
run 0
WARNING: No fixes with time integration, atoms won't move (src/verlet.cpp:60)
Neighbor list info ...
  update every 1 steps, delay 0 steps, check yes
  max neighbors/atom: 2000, page size: 100000
  master list distance cutoff = 4.790241
  ghost atom cutoff = 4.790241
  binsize = 2.3951205, bins = 4 3 13
  1 neighbor lists, perpetual/occasional/extra = 1 0 0
  (1) pair sw, perpetual
      attributes: full, newton on
      pair build: full/bin/atomonly
      stencil: full/bin/3d
      bin: standard
Per MPI rank memory allocation (min/avg/max) = 58.47 | 58.47 | 58.47 Mbytes
PotEng Pxx E_mol E_coul 
   -6.409427   -43.549591            0            0 
Loop time of 2.375e-06 on 64 procs for 0 steps with 12 atoms

463.2% CPU use with 1 MPI tasks x 64 OpenMP threads

MPI task timing breakdown:
Section |  min time  |  avg time  |  max time  |%varavg| %total
---------------------------------------------------------------
Pair    | 0          | 0          | 0          |   0.0 |  0.00
Neigh   | 0          | 0          | 0          |   0.0 |  0.00
Comm    | 0          | 0          | 0          |   0.0 |  0.00
Output  | 0          | 0          | 0          |   0.0 |  0.00
Modify  | 0          | 0          | 0          |   0.0 |  0.00
Other   |            | 2.375e-06  |            |       |100.00

Nlocal:        12.0000 ave          12 max          12 min
Histogram: 1 0 0 0 0 0 0 0 0 0
Nghost:        116.000 ave         116 max         116 min
Histogram: 1 0 0 0 0 0 0 0 0 0
Neighs:         0.00000 ave           0 max           0 min
Histogram: 1 0 0 0 0 0 0 0 0 0
FullNghs:      192.000 ave         192 max         192 min
Histogram: 1 0 0 0 0 0 0 0 0 0

Total # of neighbors = 192
Ave neighs/atom = 16.000000
Neighbor list builds = 0
Dangerous builds = 0
change_box all boundary p p p
Changing box ...
set atom * x 0.0 y 0.0 z 0.0
Setting atom values ...
  12 settings made for x
  12 settings made for y
  12 settings made for z
change_box all     x final 0 8.059030207162023 y final 0 5.6794138418255855 z final 0 30.10888      xy final 4.440892098500626e-16 xz final 0.0 yz final 0.0 units box
Changing box ...
  triclinic box = (0.0000000 0.0000000 0.0000000) to (8.0590302 5.6794138 30.108880) with tilt (4.4408921e-16 0.0000000 0.0000000)
  triclinic box = (0.0000000 0.0000000 0.0000000) to (8.0590302 5.6794138 30.108880) with tilt (4.4408921e-16 0.0000000 0.0000000)
  triclinic box = (0.0000000 0.0000000 0.0000000) to (8.0590302 5.6794138 30.108880) with tilt (4.4408921e-16 0.0000000 0.0000000)
  triclinic box = (0.0000000 0.0000000 0.0000000) to (8.0590302 5.6794138 30.108880) with tilt (4.4408921e-16 0.0000000 0.0000000)
  triclinic box = (0.0000000 0.0000000 0.0000000) to (8.0590302 5.6794138 30.108880) with tilt (4.4408921e-16 0.0000000 0.0000000)
  triclinic box = (0.0000000 0.0000000 0.0000000) to (8.0590302 5.6794138 30.108880) with tilt (4.4408921e-16 0.0000000 0.0000000)
echo none
min_style       fire
minimize        0.0 1.0e-4 10000000 10000000
  Parameters for fire: 
    dmax delaystep dtgrow dtshrink alpha0 alphashrink tmax tmin    integrator halfstepback 
     0.1        20    1.1      0.5   0.25        0.99   10 0.02 eulerimplicit          yes 
Per MPI rank memory allocation (min/avg/max) = 58.47 | 58.47 | 58.47 Mbytes
PotEng Pxx E_mol E_coul 
   -6.409427   -43.549591            0            0 
  -6.4280585    172.72588            0            0 
Loop time of 0.000551781 on 64 procs for 86 steps with 12 atoms

365.7% CPU use with 1 MPI tasks x 64 OpenMP threads

Minimization stats:
  Stopping criterion = force tolerance
  Energy initial, next-to-last, final = 
     -6.40942702255361   -6.4280585369834  -6.42805853716454
  Force two-norm initial, final = 0.76527529 9.6073420e-05
  Force max component initial, final = 0.19829686 2.3694608e-05
  Final line search alpha, max atom move = 0.0000000 0.0000000
  Iterations, force evaluations = 86 90

MPI task timing breakdown:
Section |  min time  |  avg time  |  max time  |%varavg| %total
---------------------------------------------------------------
Pair    | 0.00037457 | 0.00037457 | 0.00037457 |   0.0 | 67.88
Neigh   | 0          | 0          | 0          |   0.0 |  0.00
Comm    | 4.4541e-05 | 4.4541e-05 | 4.4541e-05 |   0.0 |  8.07
Output  | 0          | 0          | 0          |   0.0 |  0.00
Modify  | 0          | 0          | 0          |   0.0 |  0.00
Other   |            | 0.0001327  |            |       | 24.04

Nlocal:        12.0000 ave          12 max          12 min
Histogram: 1 0 0 0 0 0 0 0 0 0
Nghost:        116.000 ave         116 max         116 min
Histogram: 1 0 0 0 0 0 0 0 0 0
Neighs:         0.00000 ave           0 max           0 min
Histogram: 1 0 0 0 0 0 0 0 0 0
FullNghs:      192.000 ave         192 max         192 min
Histogram: 1 0 0 0 0 0 0 0 0 0

Total # of neighbors = 192
Ave neighs/atom = 16.000000
Neighbor list builds = 0
Dangerous builds = 0
write_data      lammps.dat_min
System init for write_data ...
run 1
WARNING: No fixes with time integration, atoms won't move (src/verlet.cpp:60)
Per MPI rank memory allocation (min/avg/max) = 58.47 | 58.47 | 58.47 Mbytes
PotEng Pxx E_mol E_coul 
  -6.4280585    172.72588            0            0 
  -6.4280585    172.72588            0            0 
Loop time of 1.3095e-05 on 64 procs for 1 steps with 12 atoms

Performance: 6597.938 ns/day, 0.004 hours/ns, 76365.025 timesteps/s
374.2% CPU use with 1 MPI tasks x 64 OpenMP threads

MPI task timing breakdown:
Section |  min time  |  avg time  |  max time  |%varavg| %total
---------------------------------------------------------------
Pair    | 5.14e-06   | 5.14e-06   | 5.14e-06   |   0.0 | 39.25
Neigh   | 0          | 0          | 0          |   0.0 |  0.00
Comm    | 9.62e-07   | 9.62e-07   | 9.62e-07   |   0.0 |  7.35
Output  | 3.376e-06  | 3.376e-06  | 3.376e-06  |   0.0 | 25.78
Modify  | 2.2e-07    | 2.2e-07    | 2.2e-07    |   0.0 |  1.68
Other   |            | 3.397e-06  |            |       | 25.94

Nlocal:        12.0000 ave          12 max          12 min
Histogram: 1 0 0 0 0 0 0 0 0 0
Nghost:        116.000 ave         116 max         116 min
Histogram: 1 0 0 0 0 0 0 0 0 0
Neighs:         0.00000 ave           0 max           0 min
Histogram: 1 0 0 0 0 0 0 0 0 0
FullNghs:      192.000 ave         192 max         192 min
Histogram: 1 0 0 0 0 0 0 0 0 0

Total # of neighbors = 192
Ave neighs/atom = 16.000000
Neighbor list builds = 0
Dangerous builds = 0
Total wall time: 0:00:00
