96
Lattice="6.58012104664396 4.652953351524507 0.0 3.2790605061304188 -4.63718705508585 0.0 0.0 0.0 100.0" Properties=species:S:1:pos:R:3:forces:R:3 spacegroup="P 1" unit_cell=conventional occupancy="_JSON {\"0\": {\"P\": 1.0}, \"1\": {\"P\": 1.0}, \"2\": {\"P\": 1.0}, \"3\": {\"P\": 1.0}}" thickness=2.108879999999999 dz=15.89112 energy=-4.064208224415779 pbc="T T T"
P        1.64017984      -1.90736597      -1.05444000       0.02180992       0.08469056      -0.17321700
P        3.27971009      -4.22595950       1.05444000      -0.05831935      -0.43544747      -0.25169560
P        4.92527452      -2.72456565       1.05444000       0.09257430       0.37428012      -0.43364187
P        3.28574426      -0.40597212      -1.05444000      -0.01835614      -0.09139592      -0.29155767
P        4.92657369      -1.90211054      -1.05444000       0.06653891       0.12976923      -0.03573291
P        3.28704344       0.41648299       1.05444000       0.41833090      -0.53174761      -0.21481716
P        4.93260786       1.91787684       1.05444000      -0.31967039       0.53736462      -0.35924068
P        4.93390704       2.74033195      -1.05444000       0.01236706       0.05996335      -0.15067292
P        6.57213811      -0.40071669      -1.05444000      -0.01828811      -0.09712240      -0.15375428
P        6.57343729       0.42173842       1.05444000      -0.12597982      -0.24884782      -0.40928309
P        8.21900171       1.92313227       1.05444000      -0.13036073       0.27257082      -0.33822049
P        6.57947146       4.24172580      -1.05444000      -0.05110755      -0.06955332      -0.23042773
P        2.02745875      -2.45504868       5.94556000      -0.20647693       0.19868338       0.13269452
P        7.50722628      -0.89880880       5.94556000      -0.36730387       0.00298936      -0.03232641
P        4.76734251      -1.67692874       3.83668000      -0.17675066       0.38916912       0.06812670
P        6.73136929      -0.62589849       3.83668000       0.24089899      -0.40787146       0.21836104
P        3.99148553      -1.40401844       5.94556000       0.28143536       0.03002988       0.09635076
P        3.12781226       0.64166479       5.94556000      -0.24763126       0.35793820       0.00473871
P        0.38792849      -0.13645515       3.83668000      -0.13063016       0.07619967       0.16926590
P        2.35195527       0.91457509       3.83668000       0.25495485       0.08207905       0.32999742
P        9.47125306       0.15222145       5.94556000       0.27442873      -0.12118244       0.15859748
P        5.86769603       1.41978473       3.83668000      -0.07218188      -0.07579761       0.18673380
P        7.83172281       2.47081497       3.83668000       0.01151347      -0.06934383       0.21028644
P        5.09183904       1.69269503       5.94556000       0.24694017      -0.39127242       0.16631733
P        1.64017984      -1.90736597       8.94556000       0.07777524       0.02008476      -0.10153604
P        3.27971009      -4.22595950      11.05444000      -0.02312761      -0.42966373      -0.10375399
P        4.92527452      -2.72456565      11.05444000       0.12198575       0.36549092      -0.30787191
P        3.28574426      -0.40597212       8.94556000       0.09011230       0.01604510      -0.23264239
P        4.92657369      -1.90211054       8.94556000       0.21931316      -0.15069603       0.01684210
P        3.28704344       0.41648299      11.05444000       0.38545301      -0.50242495      -0.07228886
P        4.93260786       1.91787684      11.05444000      -0.31511970       0.50140099      -0.22201582
P        4.93390704       2.74033195       8.94556000      -0.12311610      -0.17857433      -0.07486092
P        6.57213811      -0.40071669       8.94556000      -0.22152442       0.15475567      -0.11588198
P        6.57343729       0.42173842      11.05444000      -0.14168714      -0.23745199      -0.25182049
P        8.21900171       1.92313227      11.05444000      -0.15183587       0.27510788      -0.17081282
P        6.57947146       4.24172580       8.94556000      -0.02742504       0.09430502      -0.07249323
P        2.02745875      -2.45504868      15.94556000      -0.20647678       0.19868334       0.13269460
P        7.50722628      -0.89880880      15.94556000      -0.36730373       0.00298929      -0.03232723
P        4.76734251      -1.67692874      13.83668000      -0.17675019       0.38916915       0.06812640
P        6.73136929      -0.62589849      13.83668000       0.24089862      -0.40787109       0.21835979
P        3.99148553      -1.40401844      15.94556000       0.28143521       0.03003002       0.09635013
P        3.12781226       0.64166479      15.94556000      -0.24763141       0.35793815       0.00473812
P        0.38792849      -0.13645515      13.83668000      -0.13062994       0.07620017       0.16926613
P        2.35195527       0.91457509      13.83668000       0.25495488       0.08207892       0.32999562
P        9.47125306       0.15222145      15.94556000       0.27442905      -0.12118249       0.15859677
P        5.86769603       1.41978473      13.83668000      -0.07218234      -0.07579758       0.18673182
P        7.83172281       2.47081497      13.83668000       0.01151327      -0.06934434       0.21028521
P        5.09183904       1.69269503      15.94556000       0.24693986      -0.39127287       0.16631682
P        1.64017984      -1.90736597      18.94556000       0.07777533       0.02008485      -0.10153580
P        3.27971009      -4.22595950      21.05444000      -0.02312819      -0.42966379      -0.10375371
P        4.92527452      -2.72456565      21.05444000       0.12198592       0.36549147      -0.30787335
P        3.28574426      -0.40597212      18.94556000       0.09011221       0.01604463      -0.23264209
P        4.92657369      -1.90211054      18.94556000       0.21931334      -0.15069629       0.01684230
P        3.28704344       0.41648299      21.05444000       0.38545328      -0.50242540      -0.07228969
P        4.93260786       1.91787684      21.05444000      -0.31511992       0.50140145      -0.22201681
P        4.93390704       2.74033195      18.94556000      -0.12311643      -0.17857442      -0.07485978
P        6.57213811      -0.40071669      18.94556000      -0.22152497       0.15475594      -0.11588236
P        6.57343729       0.42173842      21.05444000      -0.14168672      -0.23745190      -0.25182264
P        8.21900171       1.92313227      21.05444000      -0.15183579       0.27510763      -0.17081335
P        6.57947146       4.24172580      18.94556000      -0.02742460       0.09430517      -0.07249381
P        2.02745875      -2.45504868      25.94556000      -0.20647957       0.19868378       0.13268699
P        7.50722628      -0.89880880      25.94556000      -0.36730626       0.00299011      -0.03233565
P        4.76734251      -1.67692874      23.83668000      -0.17675295       0.38917038       0.06813453
P        6.73136929      -0.62589849      23.83668000       0.24090256      -0.40787307       0.21836884
P        3.99148553      -1.40401844      25.94556000       0.28143750       0.03002872       0.09634269
P        3.12781226       0.64166479      25.94556000      -0.24763404       0.35793897       0.00472970
P        0.38792849      -0.13645515      23.83668000      -0.13063355       0.07620126       0.16927375
P        2.35195527       0.91457509      23.83668000       0.25495896       0.08207812       0.33000588
P        9.47125306       0.15222145      25.94556000       0.27443076      -0.12118325       0.15858961
P        5.86769603       1.41978473      23.83668000      -0.07218426      -0.07579605       0.18674183
P        7.83172281       2.47081497      23.83668000       0.01151647      -0.06934536       0.21029367
P        5.09183904       1.69269503      25.94556000       0.24694146      -0.39127340       0.16630901
P        1.64017984      -1.90736597      28.94556000       0.07777525       0.02008452      -0.10153604
P        3.27971009      -4.22595950      31.05444000      -0.02312735      -0.42966363      -0.10375330
P        4.92527452      -2.72456565      31.05444000       0.12198617       0.36549187      -0.30787100
P        3.28574426      -0.40597212      28.94556000       0.09011211       0.01604537      -0.23264188
P        4.92657369      -1.90211054      28.94556000       0.21931316      -0.15069580       0.01684187
P        3.28704344       0.41648299      31.05444000       0.38545293      -0.50242478      -0.07228748
P        4.93260786       1.91787684      31.05444000      -0.31511996       0.50140109      -0.22201416
P        4.93390704       2.74033195      28.94556000      -0.12311600      -0.17857448      -0.07485963
P        6.57213811      -0.40071669      28.94556000      -0.22152478       0.15475560      -0.11588152
P        6.57343729       0.42173842      31.05444000      -0.14168695      -0.23745198      -0.25181938
P        8.21900171       1.92313227      31.05444000      -0.15183580       0.27510744      -0.17081147
P        6.57947146       4.24172580      28.94556000      -0.02742472       0.09430521      -0.07249336
P        2.02745875      -2.45504868      35.94556000      -0.15825590       0.12756120       0.15689640
P        7.50722628      -0.89880880      35.94556000      -0.16104512       0.02688400       0.09062260
P        4.76734251      -1.67692874      33.83668000      -0.19460045       0.40718684       0.18226408
P        6.73136929      -0.62589849      33.83668000       0.29098419      -0.41706136       0.30763855
P        3.99148553      -1.40401844      35.94556000       0.15467207      -0.06707536       0.26176998
P        3.12781226       0.64166479      35.94556000      -0.07984529       0.09837020       0.08126654
P        0.38792849      -0.13645515      33.83668000      -0.11896679       0.06192219       0.31316085
P        2.35195527       0.91457509      33.83668000       0.23315105       0.07383091       0.46687137
P        9.47125306       0.15222145      35.94556000       0.08906648      -0.11089614       0.22849442
P        5.86769603       1.41978473      33.83668000      -0.07409912      -0.06089146       0.39300041
P        7.83172281       2.47081497      33.83668000       0.01161749      -0.07354571       0.36276302
P        5.09183904       1.69269503      35.94556000       0.11778213      -0.05081028       0.19749958
96
Lattice="6.58012104664396 4.652953351524507 0.0 3.2790605061304188 -4.63718705508585 0.0 0.0 0.0 100.0" Properties=species:S:1:pos:R:3:forces:R:3 spacegroup="P 1" unit_cell=conventional occupancy="_JSON {\"0\": {\"P\": 1.0}, \"1\": {\"P\": 1.0}, \"2\": {\"P\": 1.0}, \"3\": {\"P\": 1.0}}" thickness=2.108879999999999 dz=15.89112 energy=-4.198228478431702 pbc="T T T"
P        1.64039794      -1.90651906      -1.05617217       0.01636367       0.08033568      -0.18744979
P        3.27912690      -4.23031397       1.05192304      -0.04129355      -0.36336666      -0.24420018
P        4.92620026      -2.72082285       1.05010358       0.09753248       0.27789834      -0.37485530
P        3.28556070      -0.40688608      -1.05735558      -0.01295049      -0.07971191      -0.28946377
P        4.92723908      -1.90081285      -1.05479733       0.05820609       0.12620682      -0.07301501
P        3.29122675       0.41116551       1.05229183       0.35759294      -0.45934570      -0.21524612
P        4.92941116       1.92325049       1.05084759      -0.27766360       0.46084775      -0.31753349
P        4.93403071       2.74093158      -1.05594673       0.00622204       0.05889871      -0.17609413
P        6.57195523      -0.40168791      -1.05597754      -0.01151233      -0.08668682      -0.17651818
P        6.57217749       0.41924994       1.05034717      -0.13562636      -0.18449580      -0.37733819
P        8.21769810       1.92585798       1.05105780      -0.11896731       0.21887289      -0.30927028
P        6.57896038       4.24103027      -1.05674428      -0.04502847      -0.06259228      -0.23798740
P        2.02539398      -2.45306185       5.94688695      -0.16271006       0.17376842       0.14360368
P        7.50355324      -0.89877891       5.94523674      -0.29334374      -0.02426565       0.01672269
P        4.76557500      -1.67303705       3.83736127      -0.15884976       0.32937420       0.05521169
P        6.73377828      -0.62997720       3.83886361       0.20955987      -0.35106037       0.16770229
P        3.99429988      -1.40371814       5.94652351       0.22854755       0.05337728       0.09948957
P        3.12533595       0.64524417       5.94560739      -0.20362390       0.30732454       0.05030260
P        0.38662219      -0.13569315       3.83837266      -0.09449874       0.07774833       0.15210819
P        2.35450482       0.91539588       3.83997997       0.19856742       0.10326105       0.26903061
P        9.47399735       0.15100963       5.94714597       0.21648959      -0.10605475       0.16175856
P        5.86697421       1.41902675       3.83854734      -0.04524326      -0.09820323       0.15859575
P        7.83183794       2.47012153       3.83878286      -0.00338216      -0.05948470       0.18983816
P        5.09430844       1.68878231       5.94722317       0.21282997      -0.33757528       0.17309234
P        1.64095759      -1.90716512       8.94454464       0.06996435       0.02899365      -0.10796236
P        3.27947881      -4.23025614      11.05340246      -0.01051774      -0.35248204      -0.09152724
P        4.92649438      -2.72091074      11.05136128       0.12417620       0.26874445      -0.24631005
P        3.28664538      -0.40581167       8.94323358       0.09635301       0.00310609      -0.22693831
P        4.92876682      -1.90361750       8.94572842       0.19340114      -0.13100646      -0.02363526
P        3.29089797       0.41145874      11.05371711       0.32981307      -0.43385549      -0.07500372
P        4.92945666       1.92289085      11.05221984      -0.27515069       0.42659466      -0.17961705
P        4.93267588       2.73854621       8.94481139      -0.12556547      -0.13573284      -0.10373999
P        6.56992287      -0.39916913       8.94440118      -0.18423542       0.13781757      -0.13561226
P        6.57202042       0.41936390      11.05192180      -0.14984332      -0.17219574      -0.22447761
P        8.21748335       1.92588335      11.05273187      -0.13651530       0.22127452      -0.15151191
P        6.57919721       4.24266885       8.94483507      -0.03632717       0.07004444      -0.08564996
P        2.02539398      -2.45306185      15.94688695      -0.16267784       0.17371678       0.14406643
P        7.50355324      -0.89877891      15.94523673      -0.29327610      -0.02453026       0.01716558
P        4.76557501      -1.67303705      13.83736126      -0.15935022       0.33043321       0.05604295
P        6.73377828      -0.62997720      13.83886360       0.21018502      -0.35225913       0.17023532
P        3.99429988      -1.40371814      15.94652350       0.22854390       0.05339883       0.10025711
P        3.12533595       0.64524417      15.94560738      -0.20323996       0.30750327       0.05068294
P        0.38662219      -0.13569315      13.83837266      -0.09455874       0.07751434       0.15258863
P        2.35450482       0.91539588      13.83997996       0.19840682       0.10368983       0.27177183
P        9.47399735       0.15100963      15.94714597       0.21606837      -0.10586542       0.16245791
P        5.86697421       1.41902675      13.83854732      -0.04507950      -0.09844448       0.16155426
P        7.83183794       2.47012153      13.83878285      -0.00314109      -0.05897148       0.19191762
P        5.09430844       1.68878230      15.94722317       0.21256735      -0.33748838       0.17324389
P        1.64095759      -1.90716512      18.94454464       0.06996312       0.02898982      -0.10794585
P        3.27947881      -4.23025614      21.05340246      -0.01051741      -0.35247972      -0.09151105
P        4.92649438      -2.72091074      21.05136127       0.12417600       0.26874486      -0.24631082
P        3.28664538      -0.40581167      18.94323358       0.09635216       0.00310596      -0.22693904
P        4.92876682      -1.90361750      18.94572842       0.19340114      -0.13100658      -0.02363532
P        3.29089797       0.41145874      21.05371710       0.32981338      -0.43385541      -0.07500379
P        4.92945666       1.92289085      21.05221983      -0.27515114       0.42659687      -0.17962433
P        4.93267588       2.73854621      18.94481140      -0.12556437      -0.13573510      -0.10372983
P        6.56992286      -0.39916913      18.94440118      -0.18423508       0.13781850      -0.13561257
P        6.57202042       0.41936390      21.05192177      -0.14984407      -0.17219526      -0.22447779
P        8.21748335       1.92588335      21.05273187      -0.13651455       0.22127969      -0.15153119
P        6.57919721       4.24266885      18.94483506      -0.03632706       0.07004050      -0.08566665
P        2.02539395      -2.45306184      25.94688687      -0.16267516       0.17371576       0.14407469
P        7.50355322      -0.89877890      25.94523664      -0.29327318      -0.02453079       0.01717703
P        4.76557498      -1.67303704      23.83736135      -0.15934785       0.33043256       0.05603337
P        6.73377832      -0.62997722      23.83886369       0.21018231      -0.35226013       0.17022607
P        3.99429990      -1.40371815      25.94652343       0.22854144       0.05339959       0.10026446
P        3.12533592       0.64524418      25.94560730      -0.20324422       0.30750496       0.05066782
P        0.38662215      -0.13569314      23.83837274      -0.09455338       0.07751283       0.15256947
P        2.35450486       0.91539587      23.83998006       0.19841169       0.10368780       0.27178956
P        9.47399737       0.15100962      25.94714590       0.21606357      -0.10586561       0.16247432
P        5.86697419       1.41902677      23.83854742      -0.04508506      -0.09844342       0.16157370
P        7.83183797       2.47012152      23.83878294      -0.00314338      -0.05896822       0.19191117
P        5.09430845       1.68878230      25.94722309       0.21257108      -0.33748956       0.17322504
P        1.64095759      -1.90716512      28.94454464       0.07015608       0.02870187      -0.10741117
P        3.27947882      -4.23025614      31.05340247      -0.01041599      -0.35200529      -0.09072888
P        4.92649438      -2.72091073      31.05136129       0.12431200       0.26876074      -0.24492776
P        3.28664538      -0.40581167      28.94323358       0.09637178       0.00341054      -0.22600569
P        4.92876682      -1.90361750      28.94572842       0.19326832      -0.13115437      -0.02329356
P        3.29089797       0.41145874      31.05371713       0.32911728      -0.43270665      -0.07359953
P        4.92945666       1.92289085      31.05221986      -0.27446956       0.42554580      -0.17773772
P        4.93267588       2.73854621      28.94481140      -0.12554014      -0.13602603      -0.10282553
P        6.56992286      -0.39916913      28.94440118      -0.18431375       0.13802846      -0.13514583
P        6.57202042       0.41936390      31.05192181      -0.14991484      -0.17216327      -0.22203901
P        8.21748335       1.92588334      31.05273189      -0.13619905       0.22101138      -0.14919027
P        6.57919721       4.24266885      28.94483507      -0.03634303       0.07027965      -0.08485582
P        2.02587619      -2.45377307      35.94712896      -0.12793910       0.10607979       0.17999704
P        7.50561583      -0.89853996      35.94646623      -0.13247692       0.01453953       0.12513641
P        4.76539651      -1.67285687      33.83850264      -0.17263467       0.34816348       0.17769097
P        6.73427913      -0.63006910      33.83975639       0.25480672      -0.35869523       0.26460178
P        3.99303225      -1.40468919      35.94817770       0.12979621      -0.05222795       0.25908361
P        3.12701381       0.64264849      35.94637267      -0.05325942       0.07873228       0.12360040
P        0.38673882      -0.13583593      33.83981161      -0.08471902       0.06320868       0.29558975
P        2.35428678       0.91531340      33.84134871       0.17871497       0.09517270       0.40947631
P        9.47214372       0.15111249      35.94784494       0.06535181      -0.08968523       0.23734189
P        5.86695504       1.41917582      33.84061000      -0.04375548      -0.08717937       0.35548859
P        7.83183898       2.47007951      33.84030763      -0.00522338      -0.06392740       0.33352317
P        5.09301686       1.69218693      35.94753500       0.09809013      -0.04093425       0.21774832
96
Lattice="6.58012104664396 4.652953351524507 0.0 3.2790605061304188 -4.63718705508585 0.0 0.0 0.0 100.0" Properties=species:S:1:pos:R:3:forces:R:3 spacegroup="P 1" unit_cell=conventional occupancy="_JSON {\"0\": {\"P\": 1.0}, \"1\": {\"P\": 1.0}, \"2\": {\"P\": 1.0}, \"3\": {\"P\": 1.0}}" thickness=2.108879999999999 dz=15.89112 energy=-4.3984029442071915 pbc="T T T"
P        1.64077676      -1.90486074      -1.05982205       0.00684888       0.07061431      -0.21171675
P        3.27814141      -4.23828621       1.04693383      -0.01264548      -0.23490049      -0.23150333
P        4.92812137      -2.71435448       1.04201944       0.10364333       0.10837585      -0.26919213
P        3.28525104      -0.40859780      -1.06320845      -0.00336486      -0.05633244      -0.28373432
P        4.92848720      -1.89823714      -1.05593338       0.04231715       0.11630500      -0.13890562
P        3.29898054       0.40125597       1.04795749       0.24992603      -0.32915477      -0.21674741
P        4.92343689       1.93322734       1.04407247      -0.20408592       0.32267114      -0.24296219
P        4.93421142       2.74212825      -1.05926705      -0.00431805       0.05485945      -0.22050869
P        6.57166222      -0.40352897      -1.05933032       0.00075553      -0.06443596      -0.21696789
P        6.56953081       0.41495233       1.04245456      -0.14852132      -0.07199620      -0.31989487
P        8.21519782       1.93075256       1.04456402      -0.09766225       0.12280929      -0.25766475
P        6.57799814       4.23970609      -1.06147278      -0.03373573      -0.04768179      -0.25014710
P        2.02172072      -2.44933538       5.94968304      -0.08548510       0.12925936       0.16061632
P        7.49697537      -0.89902268       5.94513233      -0.16274883      -0.07013305       0.10204208
P        4.76221234      -1.66586049       3.83859027      -0.12696244       0.22419702       0.03354454
P        6.73828393      -0.63756399       3.84269951       0.15337488      -0.25145669       0.07824129
P        3.99938216      -1.40285247       5.94850043       0.13518802       0.09152758       0.10256820
P        3.12083592       0.65189370       5.94621114      -0.12614071       0.21808604       0.12974348
P        0.38439242      -0.13414010       3.84159276      -0.03226385       0.07872546       0.12292058
P        2.35901435       0.91728643       3.84595088       0.09980009       0.13771983       0.15950178
P        9.47888206       0.14873598       5.95037771       0.11518534      -0.07837956       0.16482652
P        5.86581990       1.41724916       3.84199702       0.00117896      -0.13329667       0.11032728
P        7.83190384       2.46883391       3.84279301      -0.02869726      -0.04140092       0.15372870
P        5.09890494       1.68149533       5.95065081       0.15304562      -0.24276106       0.18128998
P        1.64243799      -1.90666095       8.94242654       0.05580756       0.04354940      -0.11727234
P        3.27915334      -4.23805491      11.05144772       0.01009168      -0.21592874      -0.07130964
P        4.92897739      -2.71462358      11.04584294       0.12563088       0.09919057      -0.13677796
P        3.28853117      -0.40563262       8.93860839       0.10553257      -0.01856099      -0.21295795
P        4.93289795      -1.90643509       8.94561636       0.14665641      -0.09748569      -0.09440187
P        3.29804598       0.40209743      11.05222987       0.23145193      -0.31099934      -0.08149344
P        4.92355139       1.93216195      11.04821814      -0.20514961       0.29271201      -0.10556422
P        4.93016720       2.73542499       8.94298046      -0.12814731      -0.06127277      -0.15203651
P        6.56587407      -0.39623903       8.94184554      -0.11800443       0.10964457      -0.16864415
P        6.56907379       0.41530606      11.04715145      -0.16008985      -0.05862508      -0.17656101
P        8.21459405       1.93082755      11.04950450      -0.10869800       0.12583710      -0.11768864
P        6.57854517       4.24429891       8.94322724      -0.05099928       0.02844681      -0.10705173
P        2.02172108      -2.44933595      15.94968820      -0.08536063       0.12915734       0.16214658
P        7.49697613      -0.89902563      15.94513726      -0.16251972      -0.07092833       0.10355535
P        4.76220677      -1.66584867      13.83859954      -0.12842718       0.22704258       0.03615543
P        6.73829089      -0.63757735      13.84272774       0.15513395      -0.25466130       0.08517456
P        3.99938212      -1.40285223      15.94850898       0.13517900       0.09162693       0.10480426
P        3.12084020       0.65189569      15.94621537      -0.12497352       0.21854281       0.13097174
P        0.38439176      -0.13414270      13.84159812      -0.03237174       0.07818398       0.12441421
P        2.35901256       0.91729121      13.84598142       0.09924585       0.13897867       0.16732883
P        9.47887737       0.14873810      15.95038549       0.11395508      -0.07784330       0.16684222
P        5.86582172       1.41724647      13.84202998       0.00181328      -0.13406719       0.11872135
P        7.83190652       2.46883962      13.84281618      -0.02801521      -0.04001151       0.15960038
P        5.09890200       1.68149630      15.95065249       0.15226012      -0.24252639       0.18197156
P        1.64243798      -1.90666099      18.94242673       0.05581096       0.04355153      -0.11727180
P        3.27915334      -4.23805488      21.05144791       0.01009290      -0.21592531      -0.07130813
P        4.92897739      -2.71462357      21.04584291       0.12563261       0.09918748      -0.13677489
P        3.28853116      -0.40563263      18.93860838       0.10553470      -0.01856330      -0.21296106
P        4.93289796      -1.90643510      18.94561636       0.14665818      -0.09749687      -0.09439229
P        3.29804599       0.40209742      21.05222986       0.23145170      -0.31099444      -0.08147822
P        4.92355138       1.93216199      21.04821804      -0.20515087       0.29270928      -0.10556466
P        4.93016721       2.73542496      18.94298060      -0.12814984      -0.06127928      -0.15202981
P        6.56587407      -0.39623902      18.94184553      -0.11800935       0.10965662      -0.16862861
P        6.56907379       0.41530606      21.04715141      -0.16008995      -0.05862404      -0.17656188
P        8.21459406       1.93082760      21.04950428      -0.10869940       0.12583216      -0.11767378
P        6.57854518       4.24429887      18.94322704      -0.05100208       0.02845212      -0.10703943
P        2.02172106      -2.44933596      25.94968815      -0.08536448       0.12915361       0.16214755
P        7.49697611      -0.89902562      25.94513723      -0.16251403      -0.07092522       0.10356612
P        4.76220674      -1.66584866      23.83859959      -0.12842546       0.22704314       0.03615004
P        6.73829094      -0.63757740      23.84272781       0.15513542      -0.25466256       0.08518008
P        3.99938213      -1.40285224      25.94850892       0.13517577       0.09162860       0.10481469
P        3.12084010       0.65189573      25.94621504      -0.12496398       0.21853148       0.13099348
P        0.38439175      -0.13414270      23.84159805      -0.03237460       0.07818189       0.12442801
P        2.35901269       0.91729117      23.84598182       0.09924476       0.13898005       0.16732710
P        9.47887735       0.14873808      25.95038554       0.11395256      -0.07784157       0.16684252
P        5.86582162       1.41724651      23.84203039       0.00181213      -0.13406375       0.11873702
P        7.83190656       2.46883964      23.84281627      -0.02801525      -0.04001284       0.15961413
P        5.09890207       1.68149627      25.95065213       0.15225644      -0.24251792       0.18196729
P        1.64244013      -1.90666421      28.94243269       0.05636072       0.04271642      -0.11555873
P        3.27915448      -4.23804959      31.05145664       0.01044827      -0.21460580      -0.06889988
P        4.92897891      -2.71462338      31.04585838       0.12595763       0.09944704      -0.13268863
P        3.28853138      -0.40562921      28.93861880       0.10553360      -0.01768540      -0.21025165
P        4.93289647      -1.90643674      28.94562017       0.14625853      -0.09797504      -0.09340089
P        3.29803822       0.40211025      31.05224556       0.22954412      -0.30786150      -0.07732888
P        4.92355898       1.93215026      31.04823914      -0.20321068       0.28980964      -0.09996802
P        4.93016749       2.73542172      28.94299069      -0.12804578      -0.06213261      -0.14933168
P        6.56587319      -0.39623668      28.94185075      -0.11823324       0.11025803      -0.16721119
P        6.56907300       0.41530642      31.04717867      -0.16019457      -0.05866341      -0.16976591
P        8.21459758       1.93082461      31.04953042      -0.10781735       0.12517880      -0.11117715