LAMMPS (27 Oct 2021)
  using 64 OpenMP thread(s) per MPI task
units metal
atom_style atomic
atom_modify map array sort 0 0
boundary p p p
box tilt large
region cell prism    0 8.059030207162023 0 5.6794138418255855 0 30.10888     4.440892098500626e-16 0.0 0.0     units box
create_box 4 cell
Created triclinic box = (0.0000000 0.0000000 0.0000000) to (8.0590302 5.6794138 30.108880) with tilt (4.4408921e-16 0.0000000 0.0000000)
  1 by 1 by 1 MPI processor grid
echo none
Created 12 atoms
  using lattice units in triclinic box = (0.0000000 0.0000000 0.0000000) to (8.0590302 5.6794138 30.108880) with tilt (4.4408921e-16 0.0000000 0.0000000)
  create_atoms CPU = 0.000 seconds
Setting atom values ...
  1 settings made for type
Setting atom values ...
  1 settings made for type
Setting atom values ...
  1 settings made for type
Setting atom values ...
  1 settings made for type
Setting atom values ...
  1 settings made for type
Setting atom values ...
  1 settings made for type
Setting atom values ...
  1 settings made for type
Setting atom values ...
  1 settings made for type
Setting atom values ...
  1 settings made for type
Setting atom values ...
  1 settings made for type
Setting atom values ...
  1 settings made for type
Setting atom values ...
  1 settings made for type
pair_style sw
pair_coeff * * bp.sw T T B B
neighbor        2.0 bin
neigh_modify every 1 delay 0 check yes
mass 1 30.973761990032176782960959826596
mass 2 30.973761990032176782960959826596
mass 3 30.973761990032176782960959826596
mass 4 30.973761990032176782960959826596
variable pxx equal pxx
variable pyy equal pyy
variable pzz equal pzz
variable pxy equal pxy
variable pxz equal pxz
variable pyz equal pyz
thermo_style custom pe pxx emol ecoul
variable fx atom fx
variable fy atom fy
variable fz atom fz
variable pe equal pe
neigh_modify delay 0 every 1 check yes
echo none
run 0
WARNING: No fixes with time integration, atoms won't move (src/verlet.cpp:60)
Neighbor list info ...
  update every 1 steps, delay 0 steps, check yes
  max neighbors/atom: 2000, page size: 100000
  master list distance cutoff = 4.790241
  ghost atom cutoff = 4.790241
  binsize = 2.3951205, bins = 4 3 13
  1 neighbor lists, perpetual/occasional/extra = 1 0 0
  (1) pair sw, perpetual
      attributes: full, newton on
      pair build: full/bin/atomonly
      stencil: full/bin/3d
      bin: standard
Per MPI rank memory allocation (min/avg/max) = 58.47 | 58.47 | 58.47 Mbytes
PotEng Pxx E_mol E_coul 
   -6.409427   -43.549746            0            0 
Loop time of 2.114e-06 on 64 procs for 0 steps with 12 atoms

425.7% CPU use with 1 MPI tasks x 64 OpenMP threads

MPI task timing breakdown:
Section |  min time  |  avg time  |  max time  |%varavg| %total
---------------------------------------------------------------
Pair    | 0          | 0          | 0          |   0.0 |  0.00
Neigh   | 0          | 0          | 0          |   0.0 |  0.00
Comm    | 0          | 0          | 0          |   0.0 |  0.00
Output  | 0          | 0          | 0          |   0.0 |  0.00
Modify  | 0          | 0          | 0          |   0.0 |  0.00
Other   |            | 2.114e-06  |            |       |100.00

Nlocal:        12.0000 ave          12 max          12 min
Histogram: 1 0 0 0 0 0 0 0 0 0
Nghost:        116.000 ave         116 max         116 min
Histogram: 1 0 0 0 0 0 0 0 0 0
Neighs:         0.00000 ave           0 max           0 min
Histogram: 1 0 0 0 0 0 0 0 0 0
FullNghs:      192.000 ave         192 max         192 min
Histogram: 1 0 0 0 0 0 0 0 0 0

Total # of neighbors = 192
Ave neighs/atom = 16.000000
Neighbor list builds = 0
Dangerous builds = 0
set atom * x 0.0 y 0.0 z 0.0
Setting atom values ...
  12 settings made for x
  12 settings made for y
  12 settings made for z
change_box all     x final 0 8.059030207162023 y final 0 5.6794138418255855 z final 0 30.10888      xy final 4.440892098500626e-16 xz final 0.0 yz final 0.0 units box
Changing box ...
  triclinic box = (0.0000000 0.0000000 0.0000000) to (8.0590302 5.6794138 30.108880) with tilt (4.4408921e-16 0.0000000 0.0000000)
  triclinic box = (0.0000000 0.0000000 0.0000000) to (8.0590302 5.6794138 30.108880) with tilt (4.4408921e-16 0.0000000 0.0000000)
  triclinic box = (0.0000000 0.0000000 0.0000000) to (8.0590302 5.6794138 30.108880) with tilt (4.4408921e-16 0.0000000 0.0000000)
  triclinic box = (0.0000000 0.0000000 0.0000000) to (8.0590302 5.6794138 30.108880) with tilt (4.4408921e-16 0.0000000 0.0000000)
  triclinic box = (0.0000000 0.0000000 0.0000000) to (8.0590302 5.6794138 30.108880) with tilt (4.4408921e-16 0.0000000 0.0000000)
  triclinic box = (0.0000000 0.0000000 0.0000000) to (8.0590302 5.6794138 30.108880) with tilt (4.4408921e-16 0.0000000 0.0000000)
echo none
run 0
WARNING: No fixes with time integration, atoms won't move (src/verlet.cpp:60)
Per MPI rank memory allocation (min/avg/max) = 58.47 | 58.47 | 58.47 Mbytes
PotEng Pxx E_mol E_coul 
   -6.409427   -43.549746            0            0 
Loop time of 2.144e-06 on 64 procs for 0 steps with 12 atoms

513.1% CPU use with 1 MPI tasks x 64 OpenMP threads

MPI task timing breakdown:
Section |  min time  |  avg time  |  max time  |%varavg| %total
---------------------------------------------------------------
Pair    | 0          | 0          | 0          |   0.0 |  0.00
Neigh   | 0          | 0          | 0          |   0.0 |  0.00
Comm    | 0          | 0          | 0          |   0.0 |  0.00
Output  | 0          | 0          | 0          |   0.0 |  0.00
Modify  | 0          | 0          | 0          |   0.0 |  0.00
Other   |            | 2.144e-06  |            |       |100.00

Nlocal:        12.0000 ave          12 max          12 min
Histogram: 1 0 0 0 0 0 0 0 0 0
Nghost:        116.000 ave         116 max         116 min
Histogram: 1 0 0 0 0 0 0 0 0 0
Neighs:         0.00000 ave           0 max           0 min
Histogram: 1 0 0 0 0 0 0 0 0 0
FullNghs:      192.000 ave         192 max         192 min
Histogram: 1 0 0 0 0 0 0 0 0 0

Total # of neighbors = 192
Ave neighs/atom = 16.000000
Neighbor list builds = 0
Dangerous builds = 0
set atom * x 0.0 y 0.0 z 0.0
Setting atom values ...
  12 settings made for x
  12 settings made for y
  12 settings made for z
change_box all     x final 0 8.059030207162023 y final 0 5.6794138418255855 z final 0 30.10888      xy final 4.440892098500626e-16 xz final 0.0 yz final 0.0 units box
Changing box ...
  triclinic box = (0.0000000 0.0000000 0.0000000) to (8.0590302 5.6794138 30.108880) with tilt (4.4408921e-16 0.0000000 0.0000000)
  triclinic box = (0.0000000 0.0000000 0.0000000) to (8.0590302 5.6794138 30.108880) with tilt (4.4408921e-16 0.0000000 0.0000000)
  triclinic box = (0.0000000 0.0000000 0.0000000) to (8.0590302 5.6794138 30.108880) with tilt (4.4408921e-16 0.0000000 0.0000000)
  triclinic box = (0.0000000 0.0000000 0.0000000) to (8.0590302 5.6794138 30.108880) with tilt (4.4408921e-16 0.0000000 0.0000000)
  triclinic box = (0.0000000 0.0000000 0.0000000) to (8.0590302 5.6794138 30.108880) with tilt (4.4408921e-16 0.0000000 0.0000000)
  triclinic box = (0.0000000 0.0000000 0.0000000) to (8.0590302 5.6794138 30.108880) with tilt (4.4408921e-16 0.0000000 0.0000000)
echo none
run 0
WARNING: No fixes with time integration, atoms won't move (src/verlet.cpp:60)
Per MPI rank memory allocation (min/avg/max) = 58.47 | 58.47 | 58.47 Mbytes
PotEng Pxx E_mol E_coul 
   -6.409427   -43.549746            0            0 
Loop time of 2.064e-06 on 64 procs for 0 steps with 12 atoms

484.5% CPU use with 1 MPI tasks x 64 OpenMP threads

MPI task timing breakdown:
Section |  min time  |  avg time  |  max time  |%varavg| %total
---------------------------------------------------------------
Pair    | 0          | 0          | 0          |   0.0 |  0.00
Neigh   | 0          | 0          | 0          |   0.0 |  0.00
Comm    | 0          | 0          | 0          |   0.0 |  0.00
Output  | 0          | 0          | 0          |   0.0 |  0.00
Modify  | 0          | 0          | 0          |   0.0 |  0.00
Other   |            | 2.064e-06  |            |       |100.00

Nlocal:        12.0000 ave          12 max          12 min
Histogram: 1 0 0 0 0 0 0 0 0 0
Nghost:        116.000 ave         116 max         116 min
Histogram: 1 0 0 0 0 0 0 0 0 0
Neighs:         0.00000 ave           0 max           0 min
Histogram: 1 0 0 0 0 0 0 0 0 0
FullNghs:      192.000 ave         192 max         192 min
Histogram: 1 0 0 0 0 0 0 0 0 0

Total # of neighbors = 192
Ave neighs/atom = 16.000000
Neighbor list builds = 0
Dangerous builds = 0
change_box all boundary p p p
Changing box ...
set atom * x 0.0 y 0.0 z 0.0
Setting atom values ...
  12 settings made for x
  12 settings made for y
  12 settings made for z
change_box all     x final 0 8.059030207162023 y final 0 5.6794138418255855 z final 0 30.10888      xy final 4.440892098500626e-16 xz final 0.0 yz final 0.0 units box
Changing box ...
  triclinic box = (0.0000000 0.0000000 0.0000000) to (8.0590302 5.6794138 30.108880) with tilt (4.4408921e-16 0.0000000 0.0000000)
  triclinic box = (0.0000000 0.0000000 0.0000000) to (8.0590302 5.6794138 30.108880) with tilt (4.4408921e-16 0.0000000 0.0000000)
  triclinic box = (0.0000000 0.0000000 0.0000000) to (8.0590302 5.6794138 30.108880) with tilt (4.4408921e-16 0.0000000 0.0000000)
  triclinic box = (0.0000000 0.0000000 0.0000000) to (8.0590302 5.6794138 30.108880) with tilt (4.4408921e-16 0.0000000 0.0000000)
  triclinic box = (0.0000000 0.0000000 0.0000000) to (8.0590302 5.6794138 30.108880) with tilt (4.4408921e-16 0.0000000 0.0000000)
  triclinic box = (0.0000000 0.0000000 0.0000000) to (8.0590302 5.6794138 30.108880) with tilt (4.4408921e-16 0.0000000 0.0000000)
echo none
run 0
WARNING: No fixes with time integration, atoms won't move (src/verlet.cpp:60)
Per MPI rank memory allocation (min/avg/max) = 58.47 | 58.47 | 58.47 Mbytes
PotEng Pxx E_mol E_coul 
  -6.4117417   -70.151105            0            0 
Loop time of 3.356e-06 on 64 procs for 0 steps with 12 atoms

1311.1% CPU use with 1 MPI tasks x 64 OpenMP threads

MPI task timing breakdown:
Section |  min time  |  avg time  |  max time  |%varavg| %total
---------------------------------------------------------------
Pair    | 0          | 0          | 0          |   0.0 |  0.00
Neigh   | 0          | 0          | 0          |   0.0 |  0.00
Comm    | 0          | 0          | 0          |   0.0 |  0.00
Output  | 0          | 0          | 0          |   0.0 |  0.00
Modify  | 0          | 0          | 0          |   0.0 |  0.00
Other   |            | 3.356e-06  |            |       |100.00

Nlocal:        12.0000 ave          12 max          12 min
Histogram: 1 0 0 0 0 0 0 0 0 0
Nghost:        116.000 ave         116 max         116 min
Histogram: 1 0 0 0 0 0 0 0 0 0
Neighs:         0.00000 ave           0 max           0 min
Histogram: 1 0 0 0 0 0 0 0 0 0
FullNghs:      192.000 ave         192 max         192 min
Histogram: 1 0 0 0 0 0 0 0 0 0

Total # of neighbors = 192
Ave neighs/atom = 16.000000
Neighbor list builds = 0
Dangerous builds = 0
set atom * x 0.0 y 0.0 z 0.0
Setting atom values ...
  12 settings made for x
  12 settings made for y
  12 settings made for z
change_box all     x final 0 8.059030207162023 y final 0 5.6794138418255855 z final 0 30.10888      xy final 4.440892098500626e-16 xz final 0.0 yz final 0.0 units box
Changing box ...
  triclinic box = (0.0000000 0.0000000 0.0000000) to (8.0590302 5.6794138 30.108880) with tilt (4.4408921e-16 0.0000000 0.0000000)
  triclinic box = (0.0000000 0.0000000 0.0000000) to (8.0590302 5.6794138 30.108880) with tilt (4.4408921e-16 0.0000000 0.0000000)
  triclinic box = (0.0000000 0.0000000 0.0000000) to (8.0590302 5.6794138 30.108880) with tilt (4.4408921e-16 0.0000000 0.0000000)
  triclinic box = (0.0000000 0.0000000 0.0000000) to (8.0590302 5.6794138 30.108880) with tilt (4.4408921e-16 0.0000000 0.0000000)
  triclinic box = (0.0000000 0.0000000 0.0000000) to (8.0590302 5.6794138 30.108880) with tilt (4.4408921e-16 0.0000000 0.0000000)
  triclinic box = (0.0000000 0.0000000 0.0000000) to (8.0590302 5.6794138 30.108880) with tilt (4.4408921e-16 0.0000000 0.0000000)
echo none
run 0
WARNING: No fixes with time integration, atoms won't move (src/verlet.cpp:60)
Per MPI rank memory allocation (min/avg/max) = 58.47 | 58.47 | 58.47 Mbytes
PotEng Pxx E_mol E_coul 
  -6.4117417   -70.151105            0            0 
Loop time of 3.367e-06 on 64 procs for 0 steps with 12 atoms

1306.8% CPU use with 1 MPI tasks x 64 OpenMP threads

MPI task timing breakdown:
Section |  min time  |  avg time  |  max time  |%varavg| %total
---------------------------------------------------------------
Pair    | 0          | 0          | 0          |   0.0 |  0.00
Neigh   | 0          | 0          | 0          |   0.0 |  0.00
Comm    | 0          | 0          | 0          |   0.0 |  0.00
Output  | 0          | 0          | 0          |   0.0 |  0.00
Modify  | 0          | 0          | 0          |   0.0 |  0.00
Other   |            | 3.367e-06  |            |       |100.00

Nlocal:        12.0000 ave          12 max          12 min
Histogram: 1 0 0 0 0 0 0 0 0 0
Nghost:        116.000 ave         116 max         116 min
Histogram: 1 0 0 0 0 0 0 0 0 0
Neighs:         0.00000 ave           0 max           0 min
Histogram: 1 0 0 0 0 0 0 0 0 0
FullNghs:      192.000 ave         192 max         192 min
Histogram: 1 0 0 0 0 0 0 0 0 0

Total # of neighbors = 192
Ave neighs/atom = 16.000000
Neighbor list builds = 0
Dangerous builds = 0
set atom * x 0.0 y 0.0 z 0.0
Setting atom values ...
  12 settings made for x
  12 settings made for y
  12 settings made for z
change_box all     x final 0 8.059030207162023 y final 0 5.6794138418255855 z final 0 30.10888      xy final 4.440892098500626e-16 xz final 0.0 yz final 0.0 units box
Changing box ...
  triclinic box = (0.0000000 0.0000000 0.0000000) to (8.0590302 5.6794138 30.108880) with tilt (4.4408921e-16 0.0000000 0.0000000)
  triclinic box = (0.0000000 0.0000000 0.0000000) to (8.0590302 5.6794138 30.108880) with tilt (4.4408921e-16 0.0000000 0.0000000)
  triclinic box = (0.0000000 0.0000000 0.0000000) to (8.0590302 5.6794138 30.108880) with tilt (4.4408921e-16 0.0000000 0.0000000)
  triclinic box = (0.0000000 0.0000000 0.0000000) to (8.0590302 5.6794138 30.108880) with tilt (4.4408921e-16 0.0000000 0.0000000)
  triclinic box = (0.0000000 0.0000000 0.0000000) to (8.0590302 5.6794138 30.108880) with tilt (4.4408921e-16 0.0000000 0.0000000)
  triclinic box = (0.0000000 0.0000000 0.0000000) to (8.0590302 5.6794138 30.108880) with tilt (4.4408921e-16 0.0000000 0.0000000)
echo none
run 0
WARNING: No fixes with time integration, atoms won't move (src/verlet.cpp:60)
Per MPI rank memory allocation (min/avg/max) = 58.47 | 58.47 | 58.47 Mbytes
PotEng Pxx E_mol E_coul 
  -6.4117417   -70.151105            0            0 
Loop time of 3.627e-06 on 64 procs for 0 steps with 12 atoms

1378.5% CPU use with 1 MPI tasks x 64 OpenMP threads

MPI task timing breakdown:
Section |  min time  |  avg time  |  max time  |%varavg| %total
---------------------------------------------------------------
Pair    | 0          | 0          | 0          |   0.0 |  0.00
Neigh   | 0          | 0          | 0          |   0.0 |  0.00
Comm    | 0          | 0          | 0          |   0.0 |  0.00
Output  | 0          | 0          | 0          |   0.0 |  0.00
Modify  | 0          | 0          | 0          |   0.0 |  0.00
Other   |            | 3.627e-06  |            |       |100.00

Nlocal:        12.0000 ave          12 max          12 min
Histogram: 1 0 0 0 0 0 0 0 0 0
Nghost:        116.000 ave         116 max         116 min
Histogram: 1 0 0 0 0 0 0 0 0 0
Neighs:         0.00000 ave           0 max           0 min
Histogram: 1 0 0 0 0 0 0 0 0 0
FullNghs:      192.000 ave         192 max         192 min
Histogram: 1 0 0 0 0 0 0 0 0 0

Total # of neighbors = 192
Ave neighs/atom = 16.000000
Neighbor list builds = 0
Dangerous builds = 0
change_box all boundary p p p
Changing box ...
set atom * x 0.0 y 0.0 z 0.0
Setting atom values ...
  12 settings made for x
  12 settings made for y
  12 settings made for z
change_box all     x final 0 8.059030207162023 y final 0 5.6794138418255855 z final 0 30.10888      xy final 4.440892098500626e-16 xz final 0.0 yz final 0.0 units box
Changing box ...
  triclinic box = (0.0000000 0.0000000 0.0000000) to (8.0590302 5.6794138 30.108880) with tilt (4.4408921e-16 0.0000000 0.0000000)
  triclinic box = (0.0000000 0.0000000 0.0000000) to (8.0590302 5.6794138 30.108880) with tilt (4.4408921e-16 0.0000000 0.0000000)
  triclinic box = (0.0000000 0.0000000 0.0000000) to (8.0590302 5.6794138 30.108880) with tilt (4.4408921e-16 0.0000000 0.0000000)
  triclinic box = (0.0000000 0.0000000 0.0000000) to (8.0590302 5.6794138 30.108880) with tilt (4.4408921e-16 0.0000000 0.0000000)
  triclinic box = (0.0000000 0.0000000 0.0000000) to (8.0590302 5.6794138 30.108880) with tilt (4.4408921e-16 0.0000000 0.0000000)
  triclinic box = (0.0000000 0.0000000 0.0000000) to (8.0590302 5.6794138 30.108880) with tilt (4.4408921e-16 0.0000000 0.0000000)
echo none
run 0
WARNING: No fixes with time integration, atoms won't move (src/verlet.cpp:60)
Per MPI rank memory allocation (min/avg/max) = 58.47 | 58.47 | 58.47 Mbytes
PotEng Pxx E_mol E_coul 
   -6.379146   -75.591348            0            0 
Loop time of 2.565e-06 on 64 procs for 0 steps with 12 atoms

818.7% CPU use with 1 MPI tasks x 64 OpenMP threads

MPI task timing breakdown:
Section |  min time  |  avg time  |  max time  |%varavg| %total
---------------------------------------------------------------
Pair    | 0          | 0          | 0          |   0.0 |  0.00
Neigh   | 0          | 0          | 0          |   0.0 |  0.00
Comm    | 0          | 0          | 0          |   0.0 |  0.00
Output  | 0          | 0          | 0          |   0.0 |  0.00
Modify  | 0          | 0          | 0          |   0.0 |  0.00
Other   |            | 2.565e-06  |            |       |100.00

Nlocal:        12.0000 ave          12 max          12 min
Histogram: 1 0 0 0 0 0 0 0 0 0
Nghost:        116.000 ave         116 max         116 min
Histogram: 1 0 0 0 0 0 0 0 0 0
Neighs:         0.00000 ave           0 max           0 min
Histogram: 1 0 0 0 0 0 0 0 0 0
FullNghs:      192.000 ave         192 max         192 min
Histogram: 1 0 0 0 0 0 0 0 0 0

Total # of neighbors = 192
Ave neighs/atom = 16.000000
Neighbor list builds = 0
Dangerous builds = 0
set atom * x 0.0 y 0.0 z 0.0
Setting atom values ...
  12 settings made for x
  12 settings made for y
  12 settings made for z
change_box all     x final 0 8.059030207162023 y final 0 5.6794138418255855 z final 0 30.10888      xy final 4.440892098500626e-16 xz final 0.0 yz final 0.0 units box
Changing box ...
  triclinic box = (0.0000000 0.0000000 0.0000000) to (8.0590302 5.6794138 30.108880) with tilt (4.4408921e-16 0.0000000 0.0000000)
  triclinic box = (0.0000000 0.0000000 0.0000000) to (8.0590302 5.6794138 30.108880) with tilt (4.4408921e-16 0.0000000 0.0000000)
  triclinic box = (0.0000000 0.0000000 0.0000000) to (8.0590302 5.6794138 30.108880) with tilt (4.4408921e-16 0.0000000 0.0000000)
  triclinic box = (0.0000000 0.0000000 0.0000000) to (8.0590302 5.6794138 30.108880) with tilt (4.4408921e-16 0.0000000 0.0000000)
  triclinic box = (0.0000000 0.0000000 0.0000000) to (8.0590302 5.6794138 30.108880) with tilt (4.4408921e-16 0.0000000 0.0000000)
  triclinic box = (0.0000000 0.0000000 0.0000000) to (8.0590302 5.6794138 30.108880) with tilt (4.4408921e-16 0.0000000 0.0000000)
echo none
run 0
WARNING: No fixes with time integration, atoms won't move (src/verlet.cpp:60)
Per MPI rank memory allocation (min/avg/max) = 58.47 | 58.47 | 58.47 Mbytes
PotEng Pxx E_mol E_coul 
   -6.379146   -75.591348            0            0 
Loop time of 2.555e-06 on 64 procs for 0 steps with 12 atoms

0.0% CPU use with 1 MPI tasks x 64 OpenMP threads

MPI task timing breakdown:
Section |  min time  |  avg time  |  max time  |%varavg| %total
---------------------------------------------------------------
Pair    | 0          | 0          | 0          |   0.0 |  0.00
Neigh   | 0          | 0          | 0          |   0.0 |  0.00
Comm    | 0          | 0          | 0          |   0.0 |  0.00
Output  | 0          | 0          | 0          |   0.0 |  0.00
Modify  | 0          | 0          | 0          |   0.0 |  0.00
Other   |            | 2.555e-06  |            |       |100.00

Nlocal:        12.0000 ave          12 max          12 min
Histogram: 1 0 0 0 0 0 0 0 0 0
Nghost:        116.000 ave         116 max         116 min
Histogram: 1 0 0 0 0 0 0 0 0 0
Neighs:         0.00000 ave           0 max           0 min
Histogram: 1 0 0 0 0 0 0 0 0 0
FullNghs:      192.000 ave         192 max         192 min
Histogram: 1 0 0 0 0 0 0 0 0 0

Total # of neighbors = 192
Ave neighs/atom = 16.000000
Neighbor list builds = 0
Dangerous builds = 0
set atom * x 0.0 y 0.0 z 0.0
Setting atom values ...
  12 settings made for x
  12 settings made for y
  12 settings made for z
change_box all     x final 0 8.059030207162023 y final 0 5.6794138418255855 z final 0 30.10888      xy final 4.440892098500626e-16 xz final 0.0 yz final 0.0 units box
Changing box ...
  triclinic box = (0.0000000 0.0000000 0.0000000) to (8.0590302 5.6794138 30.108880) with tilt (4.4408921e-16 0.0000000 0.0000000)
  triclinic box = (0.0000000 0.0000000 0.0000000) to (8.0590302 5.6794138 30.108880) with tilt (4.4408921e-16 0.0000000 0.0000000)
  triclinic box = (0.0000000 0.0000000 0.0000000) to (8.0590302 5.6794138 30.108880) with tilt (4.4408921e-16 0.0000000 0.0000000)
  triclinic box = (0.0000000 0.0000000 0.0000000) to (8.0590302 5.6794138 30.108880) with tilt (4.4408921e-16 0.0000000 0.0000000)
  triclinic box = (0.0000000 0.0000000 0.0000000) to (8.0590302 5.6794138 30.108880) with tilt (4.4408921e-16 0.0000000 0.0000000)
  triclinic box = (0.0000000 0.0000000 0.0000000) to (8.0590302 5.6794138 30.108880) with tilt (4.4408921e-16 0.0000000 0.0000000)
echo none
run 0
WARNING: No fixes with time integration, atoms won't move (src/verlet.cpp:60)
Per MPI rank memory allocation (min/avg/max) = 58.47 | 58.47 | 58.47 Mbytes
PotEng Pxx E_mol E_coul 
   -6.379146   -75.591348            0            0 
Loop time of 2.565e-06 on 64 procs for 0 steps with 12 atoms

0.0% CPU use with 1 MPI tasks x 64 OpenMP threads

MPI task timing breakdown:
Section |  min time  |  avg time  |  max time  |%varavg| %total
---------------------------------------------------------------
Pair    | 0          | 0          | 0          |   0.0 |  0.00
Neigh   | 0          | 0          | 0          |   0.0 |  0.00
Comm    | 0          | 0          | 0          |   0.0 |  0.00
Output  | 0          | 0          | 0          |   0.0 |  0.00
Modify  | 0          | 0          | 0          |   0.0 |  0.00
Other   |            | 2.565e-06  |            |       |100.00

Nlocal:        12.0000 ave          12 max          12 min
Histogram: 1 0 0 0 0 0 0 0 0 0
Nghost:        116.000 ave         116 max         116 min
Histogram: 1 0 0 0 0 0 0 0 0 0
Neighs:         0.00000 ave           0 max           0 min
Histogram: 1 0 0 0 0 0 0 0 0 0
FullNghs:      192.000 ave         192 max         192 min
Histogram: 1 0 0 0 0 0 0 0 0 0

Total # of neighbors = 192
Ave neighs/atom = 16.000000
Neighbor list builds = 0
Dangerous builds = 0
change_box all boundary p p p
Changing box ...
set atom * x 0.0 y 0.0 z 0.0
Setting atom values ...
  12 settings made for x
  12 settings made for y
  12 settings made for z
change_box all     x final 0 8.059030207162023 y final 0 5.6794138418255855 z final 0 30.10888      xy final 4.440892098500626e-16 xz final 0.0 yz final 0.0 units box
Changing box ...
  triclinic box = (0.0000000 0.0000000 0.0000000) to (8.0590302 5.6794138 30.108880) with tilt (4.4408921e-16 0.0000000 0.0000000)
  triclinic box = (0.0000000 0.0000000 0.0000000) to (8.0590302 5.6794138 30.108880) with tilt (4.4408921e-16 0.0000000 0.0000000)
  triclinic box = (0.0000000 0.0000000 0.0000000) to (8.0590302 5.6794138 30.108880) with tilt (4.4408921e-16 0.0000000 0.0000000)
  triclinic box = (0.0000000 0.0000000 0.0000000) to (8.0590302 5.6794138 30.108880) with tilt (4.4408921e-16 0.0000000 0.0000000)
  triclinic box = (0.0000000 0.0000000 0.0000000) to (8.0590302 5.6794138 30.108880) with tilt (4.4408921e-16 0.0000000 0.0000000)
  triclinic box = (0.0000000 0.0000000 0.0000000) to (8.0590302 5.6794138 30.108880) with tilt (4.4408921e-16 0.0000000 0.0000000)
echo none
run 0
WARNING: No fixes with time integration, atoms won't move (src/verlet.cpp:60)
Per MPI rank memory allocation (min/avg/max) = 58.47 | 58.47 | 58.47 Mbytes
PotEng Pxx E_mol E_coul 
  -6.3167191   -54.504058            0            0 
Loop time of 2.515e-06 on 64 procs for 0 steps with 12 atoms

835.0% CPU use with 1 MPI tasks x 64 OpenMP threads

MPI task timing breakdown:
Section |  min time  |  avg time  |  max time  |%varavg| %total
---------------------------------------------------------------
Pair    | 0          | 0          | 0          |   0.0 |  0.00
Neigh   | 0          | 0          | 0          |   0.0 |  0.00
Comm    | 0          | 0          | 0          |   0.0 |  0.00
Output  | 0          | 0          | 0          |   0.0 |  0.00
Modify  | 0          | 0          | 0          |   0.0 |  0.00
Other   |            | 2.515e-06  |            |       |100.00

Nlocal:        12.0000 ave          12 max          12 min
Histogram: 1 0 0 0 0 0 0 0 0 0
Nghost:        116.000 ave         116 max         116 min
Histogram: 1 0 0 0 0 0 0 0 0 0
Neighs:         0.00000 ave           0 max           0 min
Histogram: 1 0 0 0 0 0 0 0 0 0
FullNghs:      192.000 ave         192 max         192 min
Histogram: 1 0 0 0 0 0 0 0 0 0

Total # of neighbors = 192
Ave neighs/atom = 16.000000
Neighbor list builds = 0
Dangerous builds = 0
set atom * x 0.0 y 0.0 z 0.0
Setting atom values ...
  12 settings made for x
  12 settings made for y
  12 settings made for z
change_box all     x final 0 8.059030207162023 y final 0 5.6794138418255855 z final 0 30.10888      xy final 4.440892098500626e-16 xz final 0.0 yz final 0.0 units box
Changing box ...
  triclinic box = (0.0000000 0.0000000 0.0000000) to (8.0590302 5.6794138 30.108880) with tilt (4.4408921e-16 0.0000000 0.0000000)
  triclinic box = (0.0000000 0.0000000 0.0000000) to (8.0590302 5.6794138 30.108880) with tilt (4.4408921e-16 0.0000000 0.0000000)
  triclinic box = (0.0000000 0.0000000 0.0000000) to (8.0590302 5.6794138 30.108880) with tilt (4.4408921e-16 0.0000000 0.0000000)
  triclinic box = (0.0000000 0.0000000 0.0000000) to (8.0590302 5.6794138 30.108880) with tilt (4.4408921e-16 0.0000000 0.0000000)
  triclinic box = (0.0000000 0.0000000 0.0000000) to (8.0590302 5.6794138 30.108880) with tilt (4.4408921e-16 0.0000000 0.0000000)
  triclinic box = (0.0000000 0.0000000 0.0000000) to (8.0590302 5.6794138 30.108880) with tilt (4.4408921e-16 0.0000000 0.0000000)
echo none
run 0
WARNING: No fixes with time integration, atoms won't move (src/verlet.cpp:60)
Per MPI rank memory allocation (min/avg/max) = 58.47 | 58.47 | 58.47 Mbytes
PotEng Pxx E_mol E_coul 
  -6.3167191   -54.504058            0            0 
Loop time of 2.485e-06 on 64 procs for 0 steps with 12 atoms

845.1% CPU use with 1 MPI tasks x 64 OpenMP threads

MPI task timing breakdown:
Section |  min time  |  avg time  |  max time  |%varavg| %total
---------------------------------------------------------------
Pair    | 0          | 0          | 0          |   0.0 |  0.00
Neigh   | 0          | 0          | 0          |   0.0 |  0.00
Comm    | 0          | 0          | 0          |   0.0 |  0.00
Output  | 0          | 0          | 0          |   0.0 |  0.00
Modify  | 0          | 0          | 0          |   0.0 |  0.00
Other   |            | 2.485e-06  |            |       |100.00

Nlocal:        12.0000 ave          12 max          12 min
Histogram: 1 0 0 0 0 0 0 0 0 0
Nghost:        116.000 ave         116 max         116 min
Histogram: 1 0 0 0 0 0 0 0 0 0
Neighs:         0.00000 ave           0 max           0 min
Histogram: 1 0 0 0 0 0 0 0 0 0
FullNghs:      192.000 ave         192 max         192 min
Histogram: 1 0 0 0 0 0 0 0 0 0

Total # of neighbors = 192
Ave neighs/atom = 16.000000
Neighbor list builds = 0
Dangerous builds = 0
set atom * x 0.0 y 0.0 z 0.0
Setting atom values ...
  12 settings made for x
  12 settings made for y
  12 settings made for z
change_box all     x final 0 8.059030207162023 y final 0 5.6794138418255855 z final 0 30.10888      xy final 4.440892098500626e-16 xz final 0.0 yz final 0.0 units box
Changing box ...
  triclinic box = (0.0000000 0.0000000 0.0000000) to (8.0590302 5.6794138 30.108880) with tilt (4.4408921e-16 0.0000000 0.0000000)
  triclinic box = (0.0000000 0.0000000 0.0000000) to (8.0590302 5.6794138 30.108880) with tilt (4.4408921e-16 0.0000000 0.0000000)
  triclinic box = (0.0000000 0.0000000 0.0000000) to (8.0590302 5.6794138 30.108880) with tilt (4.4408921e-16 0.0000000 0.0000000)
  triclinic box = (0.0000000 0.0000000 0.0000000) to (8.0590302 5.6794138 30.108880) with tilt (4.4408921e-16 0.0000000 0.0000000)
  triclinic box = (0.0000000 0.0000000 0.0000000) to (8.0590302 5.6794138 30.108880) with tilt (4.4408921e-16 0.0000000 0.0000000)
  triclinic box = (0.0000000 0.0000000 0.0000000) to (8.0590302 5.6794138 30.108880) with tilt (4.4408921e-16 0.0000000 0.0000000)
echo none
run 0
WARNING: No fixes with time integration, atoms won't move (src/verlet.cpp:60)
Per MPI rank memory allocation (min/avg/max) = 58.47 | 58.47 | 58.47 Mbytes
PotEng Pxx E_mol E_coul 
  -6.3167191   -54.504058            0            0 
Loop time of 2.494e-06 on 64 procs for 0 steps with 12 atoms

0.0% CPU use with 1 MPI tasks x 64 OpenMP threads

MPI task timing breakdown:
Section |  min time  |  avg time  |  max time  |%varavg| %total
---------------------------------------------------------------
Pair    | 0          | 0          | 0          |   0.0 |  0.00
Neigh   | 0          | 0          | 0          |   0.0 |  0.00
Comm    | 0          | 0          | 0          |   0.0 |  0.00
Output  | 0          | 0          | 0          |   0.0 |  0.00
Modify  | 0          | 0          | 0          |   0.0 |  0.00
Other   |            | 2.494e-06  |            |       |100.00

Nlocal:        12.0000 ave          12 max          12 min
Histogram: 1 0 0 0 0 0 0 0 0 0
Nghost:        116.000 ave         116 max         116 min
Histogram: 1 0 0 0 0 0 0 0 0 0
Neighs:         0.00000 ave           0 max           0 min
Histogram: 1 0 0 0 0 0 0 0 0 0
FullNghs:      192.000 ave         192 max         192 min
Histogram: 1 0 0 0 0 0 0 0 0 0

Total # of neighbors = 192
Ave neighs/atom = 16.000000
Neighbor list builds = 0
Dangerous builds = 0
change_box all boundary p p p
Changing box ...
set atom * x 0.0 y 0.0 z 0.0
Setting atom values ...
  12 settings made for x
  12 settings made for y
  12 settings made for z
change_box all     x final 0 8.059030207162023 y final 0 5.6794138418255855 z final 0 30.10888      xy final 4.440892098500626e-16 xz final 0.0 yz final 0.0 units box
Changing box ...
  triclinic box = (0.0000000 0.0000000 0.0000000) to (8.0590302 5.6794138 30.108880) with tilt (4.4408921e-16 0.0000000 0.0000000)
  triclinic box = (0.0000000 0.0000000 0.0000000) to (8.0590302 5.6794138 30.108880) with tilt (4.4408921e-16 0.0000000 0.0000000)
  triclinic box = (0.0000000 0.0000000 0.0000000) to (8.0590302 5.6794138 30.108880) with tilt (4.4408921e-16 0.0000000 0.0000000)
  triclinic box = (0.0000000 0.0000000 0.0000000) to (8.0590302 5.6794138 30.108880) with tilt (4.4408921e-16 0.0000000 0.0000000)
  triclinic box = (0.0000000 0.0000000 0.0000000) to (8.0590302 5.6794138 30.108880) with tilt (4.4408921e-16 0.0000000 0.0000000)
  triclinic box = (0.0000000 0.0000000 0.0000000) to (8.0590302 5.6794138 30.108880) with tilt (4.4408921e-16 0.0000000 0.0000000)
echo none
run 0
WARNING: No fixes with time integration, atoms won't move (src/verlet.cpp:60)
Per MPI rank memory allocation (min/avg/max) = 58.47 | 58.47 | 58.47 Mbytes
PotEng Pxx E_mol E_coul 
  -6.2364154   -9.3079107            0            0 
Loop time of 2.665e-06 on 64 procs for 0 steps with 12 atoms

0.0% CPU use with 1 MPI tasks x 64 OpenMP threads

MPI task timing breakdown:
Section |  min time  |  avg time  |  max time  |%varavg| %total
---------------------------------------------------------------
Pair    | 0          | 0          | 0          |   0.0 |  0.00
Neigh   | 0          | 0          | 0          |   0.0 |  0.00
Comm    | 0          | 0          | 0          |   0.0 |  0.00
Output  | 0          | 0          | 0          |   0.0 |  0.00
Modify  | 0          | 0          | 0          |   0.0 |  0.00
Other   |            | 2.665e-06  |            |       |100.00

Nlocal:        12.0000 ave          12 max          12 min
Histogram: 1 0 0 0 0 0 0 0 0 0
Nghost:        116.000 ave         116 max         116 min
Histogram: 1 0 0 0 0 0 0 0 0 0
Neighs:         0.00000 ave           0 max           0 min
Histogram: 1 0 0 0 0 0 0 0 0 0
FullNghs:      192.000 ave         192 max         192 min
Histogram: 1 0 0 0 0 0 0 0 0 0

Total # of neighbors = 192
Ave neighs/atom = 16.000000
Neighbor list builds = 0
Dangerous builds = 0
set atom * x 0.0 y 0.0 z 0.0
Setting atom values ...
  12 settings made for x
  12 settings made for y
  12 settings made for z
change_box all     x final 0 8.059030207162023 y final 0 5.6794138418255855 z final 0 30.10888      xy final 4.440892098500626e-16 xz final 0.0 yz final 0.0 units box
Changing box ...
  triclinic box = (0.0000000 0.0000000 0.0000000) to (8.0590302 5.6794138 30.108880) with tilt (4.4408921e-16 0.0000000 0.0000000)
  triclinic box = (0.0000000 0.0000000 0.0000000) to (8.0590302 5.6794138 30.108880) with tilt (4.4408921e-16 0.0000000 0.0000000)
  triclinic box = (0.0000000 0.0000000 0.0000000) to (8.0590302 5.6794138 30.108880) with tilt (4.4408921e-16 0.0000000 0.0000000)
  triclinic box = (0.0000000 0.0000000 0.0000000) to (8.0590302 5.6794138 30.108880) with tilt (4.4408921e-16 0.0000000 0.0000000)
  triclinic box = (0.0000000 0.0000000 0.0000000) to (8.0590302 5.6794138 30.108880) with tilt (4.4408921e-16 0.0000000 0.0000000)
  triclinic box = (0.0000000 0.0000000 0.0000000) to (8.0590302 5.6794138 30.108880) with tilt (4.4408921e-16 0.0000000 0.0000000)
echo none
run 0
WARNING: No fixes with time integration, atoms won't move (src/verlet.cpp:60)
Per MPI rank memory allocation (min/avg/max) = 58.47 | 58.47 | 58.47 Mbytes
PotEng Pxx E_mol E_coul 
  -6.2364154   -9.3079107            0            0 
Loop time of 2.825e-06 on 64 procs for 0 steps with 12 atoms

0.0% CPU use with 1 MPI tasks x 64 OpenMP threads

MPI task timing breakdown:
Section |  min time  |  avg time  |  max time  |%varavg| %total
---------------------------------------------------------------
Pair    | 0          | 0          | 0          |   0.0 |  0.00
Neigh   | 0          | 0          | 0          |   0.0 |  0.00
Comm    | 0          | 0          | 0          |   0.0 |  0.00
Output  | 0          | 0          | 0          |   0.0 |  0.00
Modify  | 0          | 0          | 0          |   0.0 |  0.00
Other   |            | 2.825e-06  |            |       |100.00

Nlocal:        12.0000 ave          12 max          12 min
Histogram: 1 0 0 0 0 0 0 0 0 0
Nghost:        116.000 ave         116 max         116 min
Histogram: 1 0 0 0 0 0 0 0 0 0
Neighs:         0.00000 ave           0 max           0 min
Histogram: 1 0 0 0 0 0 0 0 0 0
FullNghs:      192.000 ave         192 max         192 min
Histogram: 1 0 0 0 0 0 0 0 0 0

Total # of neighbors = 192
Ave neighs/atom = 16.000000
Neighbor list builds = 0
Dangerous builds = 0
set atom * x 0.0 y 0.0 z 0.0
Setting atom values ...
  12 settings made for x
  12 settings made for y
  12 settings made for z
change_box all     x final 0 8.059030207162023 y final 0 5.6794138418255855 z final 0 30.10888      xy final 4.440892098500626e-16 xz final 0.0 yz final 0.0 units box
Changing box ...
  triclinic box = (0.0000000 0.0000000 0.0000000) to (8.0590302 5.6794138 30.108880) with tilt (4.4408921e-16 0.0000000 0.0000000)
  triclinic box = (0.0000000 0.0000000 0.0000000) to (8.0590302 5.6794138 30.108880) with tilt (4.4408921e-16 0.0000000 0.0000000)
  triclinic box = (0.0000000 0.0000000 0.0000000) to (8.0590302 5.6794138 30.108880) with tilt (4.4408921e-16 0.0000000 0.0000000)
  triclinic box = (0.0000000 0.0000000 0.0000000) to (8.0590302 5.6794138 30.108880) with tilt (4.4408921e-16 0.0000000 0.0000000)
  triclinic box = (0.0000000 0.0000000 0.0000000) to (8.0590302 5.6794138 30.108880) with tilt (4.4408921e-16 0.0000000 0.0000000)
  triclinic box = (0.0000000 0.0000000 0.0000000) to (8.0590302 5.6794138 30.108880) with tilt (4.4408921e-16 0.0000000 0.0000000)
echo none
run 0
WARNING: No fixes with time integration, atoms won't move (src/verlet.cpp:60)
Per MPI rank memory allocation (min/avg/max) = 58.47 | 58.47 | 58.47 Mbytes
PotEng Pxx E_mol E_coul 
  -6.2364154   -9.3079107            0            0 
Loop time of 2.815e-06 on 64 procs for 0 steps with 12 atoms

1669.6% CPU use with 1 MPI tasks x 64 OpenMP threads

MPI task timing breakdown:
Section |  min time  |  avg time  |  max time  |%varavg| %total
---------------------------------------------------------------
Pair    | 0          | 0          | 0          |   0.0 |  0.00
Neigh   | 0          | 0          | 0          |   0.0 |  0.00
Comm    | 0          | 0          | 0          |   0.0 |  0.00
Output  | 0          | 0          | 0          |   0.0 |  0.00
Modify  | 0          | 0          | 0          |   0.0 |  0.00
Other   |            | 2.815e-06  |            |       |100.00

Nlocal:        12.0000 ave          12 max          12 min
Histogram: 1 0 0 0 0 0 0 0 0 0
Nghost:        116.000 ave         116 max         116 min
Histogram: 1 0 0 0 0 0 0 0 0 0
Neighs:         0.00000 ave           0 max           0 min
Histogram: 1 0 0 0 0 0 0 0 0 0
FullNghs:      192.000 ave         192 max         192 min
Histogram: 1 0 0 0 0 0 0 0 0 0

Total # of neighbors = 192
Ave neighs/atom = 16.000000
Neighbor list builds = 0
Dangerous builds = 0
change_box all boundary p p p
Changing box ...
set atom * x 0.0 y 0.0 z 0.0
Setting atom values ...
  12 settings made for x
  12 settings made for y
  12 settings made for z
change_box all     x final 0 8.059030207162023 y final 0 5.6794138418255855 z final 0 30.10888      xy final 4.440892098500626e-16 xz final 0.0 yz final 0.0 units box
Changing box ...
  triclinic box = (0.0000000 0.0000000 0.0000000) to (8.0590302 5.6794138 30.108880) with tilt (4.4408921e-16 0.0000000 0.0000000)
  triclinic box = (0.0000000 0.0000000 0.0000000) to (8.0590302 5.6794138 30.108880) with tilt (4.4408921e-16 0.0000000 0.0000000)
  triclinic box = (0.0000000 0.0000000 0.0000000) to (8.0590302 5.6794138 30.108880) with tilt (4.4408921e-16 0.0000000 0.0000000)
  triclinic box = (0.0000000 0.0000000 0.0000000) to (8.0590302 5.6794138 30.108880) with tilt (4.4408921e-16 0.0000000 0.0000000)
  triclinic box = (0.0000000 0.0000000 0.0000000) to (8.0590302 5.6794138 30.108880) with tilt (4.4408921e-16 0.0000000 0.0000000)
  triclinic box = (0.0000000 0.0000000 0.0000000) to (8.0590302 5.6794138 30.108880) with tilt (4.4408921e-16 0.0000000 0.0000000)
echo none
run 0
WARNING: No fixes with time integration, atoms won't move (src/verlet.cpp:60)
Per MPI rank memory allocation (min/avg/max) = 58.47 | 58.47 | 58.47 Mbytes
PotEng Pxx E_mol E_coul 
  -6.1529497    49.660512            0            0 
Loop time of 2.705e-06 on 64 procs for 0 steps with 12 atoms

0.0% CPU use with 1 MPI tasks x 64 OpenMP threads

MPI task timing breakdown:
Section |  min time  |  avg time  |  max time  |%varavg| %total
---------------------------------------------------------------
Pair    | 0          | 0          | 0          |   0.0 |  0.00
Neigh   | 0          | 0          | 0          |   0.0 |  0.00
Comm    | 0          | 0          | 0          |   0.0 |  0.00
Output  | 0          | 0          | 0          |   0.0 |  0.00
Modify  | 0          | 0          | 0          |   0.0 |  0.00
Other   |            | 2.705e-06  |            |       |100.00

Nlocal:        12.0000 ave          12 max          12 min
Histogram: 1 0 0 0 0 0 0 0 0 0
Nghost:        116.000 ave         116 max         116 min
Histogram: 1 0 0 0 0 0 0 0 0 0
Neighs:         0.00000 ave           0 max           0 min
Histogram: 1 0 0 0 0 0 0 0 0 0
FullNghs:      192.000 ave         192 max         192 min
Histogram: 1 0 0 0 0 0 0 0 0 0

Total # of neighbors = 192
Ave neighs/atom = 16.000000
Neighbor list builds = 0
Dangerous builds = 0
set atom * x 0.0 y 0.0 z 0.0
Setting atom values ...
  12 settings made for x
  12 settings made for y
  12 settings made for z
change_box all     x final 0 8.059030207162023 y final 0 5.6794138418255855 z final 0 30.10888      xy final 4.440892098500626e-16 xz final 0.0 yz final 0.0 units box
Changing box ...
  triclinic box = (0.0000000 0.0000000 0.0000000) to (8.0590302 5.6794138 30.108880) with tilt (4.4408921e-16 0.0000000 0.0000000)
  triclinic box = (0.0000000 0.0000000 0.0000000) to (8.0590302 5.6794138 30.108880) with tilt (4.4408921e-16 0.0000000 0.0000000)
  triclinic box = (0.0000000 0.0000000 0.0000000) to (8.0590302 5.6794138 30.108880) with tilt (4.4408921e-16 0.0000000 0.0000000)
  triclinic box = (0.0000000 0.0000000 0.0000000) to (8.0590302 5.6794138 30.108880) with tilt (4.4408921e-16 0.0000000 0.0000000)
  triclinic box = (0.0000000 0.0000000 0.0000000) to (8.0590302 5.6794138 30.108880) with tilt (4.4408921e-16 0.0000000 0.0000000)
  triclinic box = (0.0000000 0.0000000 0.0000000) to (8.0590302 5.6794138 30.108880) with tilt (4.4408921e-16 0.0000000 0.0000000)
echo none
run 0
WARNING: No fixes with time integration, atoms won't move (src/verlet.cpp:60)
Per MPI rank memory allocation (min/avg/max) = 58.47 | 58.47 | 58.47 Mbytes
PotEng Pxx E_mol E_coul 
  -6.1529497    49.660512            0            0 
Loop time of 2.735e-06 on 64 procs for 0 steps with 12 atoms

1791.6% CPU use with 1 MPI tasks x 64 OpenMP threads

MPI task timing breakdown:
Section |  min time  |  avg time  |  max time  |%varavg| %total
---------------------------------------------------------------
Pair    | 0          | 0          | 0          |   0.0 |  0.00
Neigh   | 0          | 0          | 0          |   0.0 |  0.00
Comm    | 0          | 0          | 0          |   0.0 |  0.00
Output  | 0          | 0          | 0          |   0.0 |  0.00
Modify  | 0          | 0          | 0          |   0.0 |  0.00
Other   |            | 2.735e-06  |            |       |100.00

Nlocal:        12.0000 ave          12 max          12 min
Histogram: 1 0 0 0 0 0 0 0 0 0
Nghost:        116.000 ave         116 max         116 min
Histogram: 1 0 0 0 0 0 0 0 0 0
Neighs:         0.00000 ave           0 max           0 min
Histogram: 1 0 0 0 0 0 0 0 0 0
FullNghs:      192.000 ave         192 max         192 min
Histogram: 1 0 0 0 0 0 0 0 0 0

Total # of neighbors = 192
Ave neighs/atom = 16.000000
Neighbor list builds = 0
Dangerous builds = 0
set atom * x 0.0 y 0.0 z 0.0
Setting atom values ...
  12 settings made for x
  12 settings made for y
  12 settings made for z
change_box all     x final 0 8.059030207162023 y final 0 5.6794138418255855 z final 0 30.10888      xy final 4.440892098500626e-16 xz final 0.0 yz final 0.0 units box
Changing box ...
  triclinic box = (0.0000000 0.0000000 0.0000000) to (8.0590302 5.6794138 30.108880) with tilt (4.4408921e-16 0.0000000 0.0000000)
  triclinic box = (0.0000000 0.0000000 0.0000000) to (8.0590302 5.6794138 30.108880) with tilt (4.4408921e-16 0.0000000 0.0000000)
  triclinic box = (0.0000000 0.0000000 0.0000000) to (8.0590302 5.6794138 30.108880) with tilt (4.4408921e-16 0.0000000 0.0000000)
  triclinic box = (0.0000000 0.0000000 0.0000000) to (8.0590302 5.6794138 30.108880) with tilt (4.4408921e-16 0.0000000 0.0000000)
  triclinic box = (0.0000000 0.0000000 0.0000000) to (8.0590302 5.6794138 30.108880) with tilt (4.4408921e-16 0.0000000 0.0000000)
  triclinic box = (0.0000000 0.0000000 0.0000000) to (8.0590302 5.6794138 30.108880) with tilt (4.4408921e-16 0.0000000 0.0000000)
echo none
run 0
WARNING: No fixes with time integration, atoms won't move (src/verlet.cpp:60)
Per MPI rank memory allocation (min/avg/max) = 58.47 | 58.47 | 58.47 Mbytes
PotEng Pxx E_mol E_coul 
  -6.1529497    49.660512            0            0 
Loop time of 2.785e-06 on 64 procs for 0 steps with 12 atoms

1651.7% CPU use with 1 MPI tasks x 64 OpenMP threads

MPI task timing breakdown:
Section |  min time  |  avg time  |  max time  |%varavg| %total
---------------------------------------------------------------
Pair    | 0          | 0          | 0          |   0.0 |  0.00
Neigh   | 0          | 0          | 0          |   0.0 |  0.00
Comm    | 0          | 0          | 0          |   0.0 |  0.00
Output  | 0          | 0          | 0          |   0.0 |  0.00
Modify  | 0          | 0          | 0          |   0.0 |  0.00
Other   |            | 2.785e-06  |            |       |100.00

Nlocal:        12.0000 ave          12 max          12 min
Histogram: 1 0 0 0 0 0 0 0 0 0
Nghost:        116.000 ave         116 max         116 min
Histogram: 1 0 0 0 0 0 0 0 0 0
Neighs:         0.00000 ave           0 max           0 min
Histogram: 1 0 0 0 0 0 0 0 0 0
FullNghs:      192.000 ave         192 max         192 min
Histogram: 1 0 0 0 0 0 0 0 0 0

Total # of neighbors = 192
Ave neighs/atom = 16.000000
Neighbor list builds = 0
Dangerous builds = 0
change_box all boundary p p p
Changing box ...
set atom * x 0.0 y 0.0 z 0.0
Setting atom values ...
  12 settings made for x
  12 settings made for y
  12 settings made for z
change_box all     x final 0 8.059030207162023 y final 0 5.6794138418255855 z final 0 30.10888      xy final 4.440892098500626e-16 xz final 0.0 yz final 0.0 units box
Changing box ...
  triclinic box = (0.0000000 0.0000000 0.0000000) to (8.0590302 5.6794138 30.108880) with tilt (4.4408921e-16 0.0000000 0.0000000)
  triclinic box = (0.0000000 0.0000000 0.0000000) to (8.0590302 5.6794138 30.108880) with tilt (4.4408921e-16 0.0000000 0.0000000)
  triclinic box = (0.0000000 0.0000000 0.0000000) to (8.0590302 5.6794138 30.108880) with tilt (4.4408921e-16 0.0000000 0.0000000)
  triclinic box = (0.0000000 0.0000000 0.0000000) to (8.0590302 5.6794138 30.108880) with tilt (4.4408921e-16 0.0000000 0.0000000)
  triclinic box = (0.0000000 0.0000000 0.0000000) to (8.0590302 5.6794138 30.108880) with tilt (4.4408921e-16 0.0000000 0.0000000)
  triclinic box = (0.0000000 0.0000000 0.0000000) to (8.0590302 5.6794138 30.108880) with tilt (4.4408921e-16 0.0000000 0.0000000)
echo none
run 0
WARNING: No fixes with time integration, atoms won't move (src/verlet.cpp:60)
Per MPI rank memory allocation (min/avg/max) = 58.47 | 58.47 | 58.47 Mbytes
PotEng Pxx E_mol E_coul 
  -6.0820152     108.1925            0            0 
Loop time of 2.946e-06 on 64 procs for 0 steps with 12 atoms

0.0% CPU use with 1 MPI tasks x 64 OpenMP threads

MPI task timing breakdown:
Section |  min time  |  avg time  |  max time  |%varavg| %total
---------------------------------------------------------------
Pair    | 0          | 0          | 0          |   0.0 |  0.00
Neigh   | 0          | 0          | 0          |   0.0 |  0.00
Comm    | 0          | 0          | 0          |   0.0 |  0.00
Output  | 0          | 0          | 0          |   0.0 |  0.00
Modify  | 0          | 0          | 0          |   0.0 |  0.00
Other   |            | 2.946e-06  |            |       |100.00

Nlocal:        12.0000 ave          12 max          12 min
Histogram: 1 0 0 0 0 0 0 0 0 0
Nghost:        116.000 ave         116 max         116 min
Histogram: 1 0 0 0 0 0 0 0 0 0
Neighs:         0.00000 ave           0 max           0 min
Histogram: 1 0 0 0 0 0 0 0 0 0
FullNghs:      192.000 ave         192 max         192 min
Histogram: 1 0 0 0 0 0 0 0 0 0

Total # of neighbors = 192
Ave neighs/atom = 16.000000
Neighbor list builds = 0
Dangerous builds = 0
set atom * x 0.0 y 0.0 z 0.0
Setting atom values ...
  12 settings made for x
  12 settings made for y
  12 settings made for z
change_box all     x final 0 8.059030207162023 y final 0 5.6794138418255855 z final 0 30.10888      xy final 4.440892098500626e-16 xz final 0.0 yz final 0.0 units box
Changing box ...
  triclinic box = (0.0000000 0.0000000 0.0000000) to (8.0590302 5.6794138 30.108880) with tilt (4.4408921e-16 0.0000000 0.0000000)
  triclinic box = (0.0000000 0.0000000 0.0000000) to (8.0590302 5.6794138 30.108880) with tilt (4.4408921e-16 0.0000000 0.0000000)
  triclinic box = (0.0000000 0.0000000 0.0000000) to (8.0590302 5.6794138 30.108880) with tilt (4.4408921e-16 0.0000000 0.0000000)
  triclinic box = (0.0000000 0.0000000 0.0000000) to (8.0590302 5.6794138 30.108880) with tilt (4.4408921e-16 0.0000000 0.0000000)
  triclinic box = (0.0000000 0.0000000 0.0000000) to (8.0590302 5.6794138 30.108880) with tilt (4.4408921e-16 0.0000000 0.0000000)
  triclinic box = (0.0000000 0.0000000 0.0000000) to (8.0590302 5.6794138 30.108880) with tilt (4.4408921e-16 0.0000000 0.0000000)
echo none
run 0
WARNING: No fixes with time integration, atoms won't move (src/verlet.cpp:60)
Per MPI rank memory allocation (min/avg/max) = 58.47 | 58.47 | 58.47 Mbytes
PotEng Pxx E_mol E_coul 
  -6.0820152     108.1925            0            0 
Loop time of 2.926e-06 on 64 procs for 0 steps with 12 atoms

1606.3% CPU use with 1 MPI tasks x 64 OpenMP threads

MPI task timing breakdown:
Section |  min time  |  avg time  |  max time  |%varavg| %total
---------------------------------------------------------------
Pair    | 0          | 0          | 0          |   0.0 |  0.00
Neigh   | 0          | 0          | 0          |   0.0 |  0.00
Comm    | 0          | 0          | 0          |   0.0 |  0.00
Output  | 0          | 0          | 0          |   0.0 |  0.00
Modify  | 0          | 0          | 0          |   0.0 |  0.00
Other   |            | 2.926e-06  |            |       |100.00

Nlocal:        12.0000 ave          12 max          12 min
Histogram: 1 0 0 0 0 0 0 0 0 0
Nghost:        116.000 ave         116 max         116 min
Histogram: 1 0 0 0 0 0 0 0 0 0
Neighs:         0.00000 ave           0 max           0 min
Histogram: 1 0 0 0 0 0 0 0 0 0
FullNghs:      192.000 ave         192 max         192 min
Histogram: 1 0 0 0 0 0 0 0 0 0

Total # of neighbors = 192
Ave neighs/atom = 16.000000
Neighbor list builds = 0
Dangerous builds = 0
set atom * x 0.0 y 0.0 z 0.0
Setting atom values ...
  12 settings made for x
  12 settings made for y
  12 settings made for z
change_box all     x final 0 8.059030207162023 y final 0 5.6794138418255855 z final 0 30.10888      xy final 4.440892098500626e-16 xz final 0.0 yz final 0.0 units box
Changing box ...
  triclinic box = (0.0000000 0.0000000 0.0000000) to (8.0590302 5.6794138 30.108880) with tilt (4.4408921e-16 0.0000000 0.0000000)
  triclinic box = (0.0000000 0.0000000 0.0000000) to (8.0590302 5.6794138 30.108880) with tilt (4.4408921e-16 0.0000000 0.0000000)
  triclinic box = (0.0000000 0.0000000 0.0000000) to (8.0590302 5.6794138 30.108880) with tilt (4.4408921e-16 0.0000000 0.0000000)
  triclinic box = (0.0000000 0.0000000 0.0000000) to (8.0590302 5.6794138 30.108880) with tilt (4.4408921e-16 0.0000000 0.0000000)
  triclinic box = (0.0000000 0.0000000 0.0000000) to (8.0590302 5.6794138 30.108880) with tilt (4.4408921e-16 0.0000000 0.0000000)
  triclinic box = (0.0000000 0.0000000 0.0000000) to (8.0590302 5.6794138 30.108880) with tilt (4.4408921e-16 0.0000000 0.0000000)
echo none
run 0
WARNING: No fixes with time integration, atoms won't move (src/verlet.cpp:60)
Per MPI rank memory allocation (min/avg/max) = 58.47 | 58.47 | 58.47 Mbytes
PotEng Pxx E_mol E_coul 
  -6.0820152     108.1925            0            0 
Loop time of 3.387e-06 on 64 procs for 0 steps with 12 atoms

1417.2% CPU use with 1 MPI tasks x 64 OpenMP threads

MPI task timing breakdown:
Section |  min time  |  avg time  |  max time  |%varavg| %total
---------------------------------------------------------------
Pair    | 0          | 0          | 0          |   0.0 |  0.00
Neigh   | 0          | 0          | 0          |   0.0 |  0.00
Comm    | 0          | 0          | 0          |   0.0 |  0.00
Output  | 0          | 0          | 0          |   0.0 |  0.00
Modify  | 0          | 0          | 0          |   0.0 |  0.00
Other   |            | 3.387e-06  |            |       |100.00

Nlocal:        12.0000 ave          12 max          12 min
Histogram: 1 0 0 0 0 0 0 0 0 0
Nghost:        116.000 ave         116 max         116 min
Histogram: 1 0 0 0 0 0 0 0 0 0
Neighs:         0.00000 ave           0 max           0 min
Histogram: 1 0 0 0 0 0 0 0 0 0
FullNghs:      192.000 ave         192 max         192 min
Histogram: 1 0 0 0 0 0 0 0 0 0

Total # of neighbors = 192
Ave neighs/atom = 16.000000
Neighbor list builds = 0
Dangerous builds = 0
change_box all boundary p p p
Changing box ...
set atom * x 0.0 y 0.0 z 0.0
Setting atom values ...
  12 settings made for x
  12 settings made for y
  12 settings made for z
change_box all     x final 0 8.059030207162023 y final 0 5.6794138418255855 z final 0 30.10888      xy final 4.440892098500626e-16 xz final 0.0 yz final 0.0 units box
Changing box ...
  triclinic box = (0.0000000 0.0000000 0.0000000) to (8.0590302 5.6794138 30.108880) with tilt (4.4408921e-16 0.0000000 0.0000000)
  triclinic box = (0.0000000 0.0000000 0.0000000) to (8.0590302 5.6794138 30.108880) with tilt (4.4408921e-16 0.0000000 0.0000000)
  triclinic box = (0.0000000 0.0000000 0.0000000) to (8.0590302 5.6794138 30.108880) with tilt (4.4408921e-16 0.0000000 0.0000000)
  triclinic box = (0.0000000 0.0000000 0.0000000) to (8.0590302 5.6794138 30.108880) with tilt (4.4408921e-16 0.0000000 0.0000000)
  triclinic box = (0.0000000 0.0000000 0.0000000) to (8.0590302 5.6794138 30.108880) with tilt (4.4408921e-16 0.0000000 0.0000000)
  triclinic box = (0.0000000 0.0000000 0.0000000) to (8.0590302 5.6794138 30.108880) with tilt (4.4408921e-16 0.0000000 0.0000000)
echo none
run 0
WARNING: No fixes with time integration, atoms won't move (src/verlet.cpp:60)
Per MPI rank memory allocation (min/avg/max) = 58.47 | 58.47 | 58.47 Mbytes
PotEng Pxx E_mol E_coul 
  -6.0358991    156.20176            0            0 
Loop time of 2.735e-06 on 64 procs for 0 steps with 12 atoms

0.0% CPU use with 1 MPI tasks x 64 OpenMP threads

MPI task timing breakdown:
Section |  min time  |  avg time  |  max time  |%varavg| %total
---------------------------------------------------------------
Pair    | 0          | 0          | 0          |   0.0 |  0.00
Neigh   | 0          | 0          | 0          |   0.0 |  0.00
Comm    | 0          | 0          | 0          |   0.0 |  0.00
Output  | 0          | 0          | 0          |   0.0 |  0.00
Modify  | 0          | 0          | 0          |   0.0 |  0.00
Other   |            | 2.735e-06  |            |       |100.00

Nlocal:        12.0000 ave          12 max          12 min
Histogram: 1 0 0 0 0 0 0 0 0 0
Nghost:        116.000 ave         116 max         116 min
Histogram: 1 0 0 0 0 0 0 0 0 0
Neighs:         0.00000 ave           0 max           0 min
Histogram: 1 0 0 0 0 0 0 0 0 0
FullNghs:      192.000 ave         192 max         192 min
Histogram: 1 0 0 0 0 0 0 0 0 0

Total # of neighbors = 192
Ave neighs/atom = 16.000000
Neighbor list builds = 0
Dangerous builds = 0
set atom * x 0.0 y 0.0 z 0.0
Setting atom values ...
  12 settings made for x
  12 settings made for y
  12 settings made for z
change_box all     x final 0 8.059030207162023 y final 0 5.6794138418255855 z final 0 30.10888      xy final 4.440892098500626e-16 xz final 0.0 yz final 0.0 units box
Changing box ...
  triclinic box = (0.0000000 0.0000000 0.0000000) to (8.0590302 5.6794138 30.108880) with tilt (4.4408921e-16 0.0000000 0.0000000)
  triclinic box = (0.0000000 0.0000000 0.0000000) to (8.0590302 5.6794138 30.108880) with tilt (4.4408921e-16 0.0000000 0.0000000)
  triclinic box = (0.0000000 0.0000000 0.0000000) to (8.0590302 5.6794138 30.108880) with tilt (4.4408921e-16 0.0000000 0.0000000)
  triclinic box = (0.0000000 0.0000000 0.0000000) to (8.0590302 5.6794138 30.108880) with tilt (4.4408921e-16 0.0000000 0.0000000)
  triclinic box = (0.0000000 0.0000000 0.0000000) to (8.0590302 5.6794138 30.108880) with tilt (4.4408921e-16 0.0000000 0.0000000)
  triclinic box = (0.0000000 0.0000000 0.0000000) to (8.0590302 5.6794138 30.108880) with tilt (4.4408921e-16 0.0000000 0.0000000)
echo none
run 0
WARNING: No fixes with time integration, atoms won't move (src/verlet.cpp:60)
Per MPI rank memory allocation (min/avg/max) = 58.47 | 58.47 | 58.47 Mbytes
PotEng Pxx E_mol E_coul 
  -6.0358991    156.20176            0            0 
Loop time of 2.755e-06 on 64 procs for 0 steps with 12 atoms

1778.6% CPU use with 1 MPI tasks x 64 OpenMP threads

MPI task timing breakdown:
Section |  min time  |  avg time  |  max time  |%varavg| %total
---------------------------------------------------------------
Pair    | 0          | 0          | 0          |   0.0 |  0.00
Neigh   | 0          | 0          | 0          |   0.0 |  0.00
Comm    | 0          | 0          | 0          |   0.0 |  0.00
Output  | 0          | 0          | 0          |   0.0 |  0.00
Modify  | 0          | 0          | 0          |   0.0 |  0.00
Other   |            | 2.755e-06  |            |       |100.00

Nlocal:        12.0000 ave          12 max          12 min
Histogram: 1 0 0 0 0 0 0 0 0 0
Nghost:        116.000 ave         116 max         116 min
Histogram: 1 0 0 0 0 0 0 0 0 0
Neighs:         0.00000 ave           0 max           0 min
Histogram: 1 0 0 0 0 0 0 0 0 0
FullNghs:      192.000 ave         192 max         192 min
Histogram: 1 0 0 0 0 0 0 0 0 0

Total # of neighbors = 192
Ave neighs/atom = 16.000000
Neighbor list builds = 0
Dangerous builds = 0
set atom * x 0.0 y 0.0 z 0.0
Setting atom values ...
  12 settings made for x
  12 settings made for y
  12 settings made for z
change_box all     x final 0 8.059030207162023 y final 0 5.6794138418255855 z final 0 30.10888      xy final 4.440892098500626e-16 xz final 0.0 yz final 0.0 units box
Changing box ...
  triclinic box = (0.0000000 0.0000000 0.0000000) to (8.0590302 5.6794138 30.108880) with tilt (4.4408921e-16 0.0000000 0.0000000)
  triclinic box = (0.0000000 0.0000000 0.0000000) to (8.0590302 5.6794138 30.108880) with tilt (4.4408921e-16 0.0000000 0.0000000)
  triclinic box = (0.0000000 0.0000000 0.0000000) to (8.0590302 5.6794138 30.108880) with tilt (4.4408921e-16 0.0000000 0.0000000)
  triclinic box = (0.0000000 0.0000000 0.0000000) to (8.0590302 5.6794138 30.108880) with tilt (4.4408921e-16 0.0000000 0.0000000)
  triclinic box = (0.0000000 0.0000000 0.0000000) to (8.0590302 5.6794138 30.108880) with tilt (4.4408921e-16 0.0000000 0.0000000)
  triclinic box = (0.0000000 0.0000000 0.0000000) to (8.0590302 5.6794138 30.108880) with tilt (4.4408921e-16 0.0000000 0.0000000)
echo none
run 0
WARNING: No fixes with time integration, atoms won't move (src/verlet.cpp:60)
Per MPI rank memory allocation (min/avg/max) = 58.47 | 58.47 | 58.47 Mbytes
PotEng Pxx E_mol E_coul 
  -6.0358991    156.20176            0            0 
Loop time of 2.685e-06 on 64 procs for 0 steps with 12 atoms

1787.7% CPU use with 1 MPI tasks x 64 OpenMP threads

MPI task timing breakdown:
Section |  min time  |  avg time  |  max time  |%varavg| %total
---------------------------------------------------------------
Pair    | 0          | 0          | 0          |   0.0 |  0.00
Neigh   | 0          | 0          | 0          |   0.0 |  0.00
Comm    | 0          | 0          | 0          |   0.0 |  0.00
Output  | 0          | 0          | 0          |   0.0 |  0.00
Modify  | 0          | 0          | 0          |   0.0 |  0.00
Other   |            | 2.685e-06  |            |       |100.00

Nlocal:        12.0000 ave          12 max          12 min
Histogram: 1 0 0 0 0 0 0 0 0 0
Nghost:        116.000 ave         116 max         116 min
Histogram: 1 0 0 0 0 0 0 0 0 0
Neighs:         0.00000 ave           0 max           0 min
Histogram: 1 0 0 0 0 0 0 0 0 0
FullNghs:      192.000 ave         192 max         192 min
Histogram: 1 0 0 0 0 0 0 0 0 0

Total # of neighbors = 192
Ave neighs/atom = 16.000000
Neighbor list builds = 0
Dangerous builds = 0
change_box all boundary p p p
Changing box ...
set atom * x 0.0 y 0.0 z 0.0
Setting atom values ...
  12 settings made for x
  12 settings made for y
  12 settings made for z
change_box all     x final 0 8.059030207162023 y final 0 5.6794138418255855 z final 0 30.10888      xy final 4.440892098500626e-16 xz final 0.0 yz final 0.0 units box
Changing box ...
  triclinic box = (0.0000000 0.0000000 0.0000000) to (8.0590302 5.6794138 30.108880) with tilt (4.4408921e-16 0.0000000 0.0000000)
  triclinic box = (0.0000000 0.0000000 0.0000000) to (8.0590302 5.6794138 30.108880) with tilt (4.4408921e-16 0.0000000 0.0000000)
  triclinic box = (0.0000000 0.0000000 0.0000000) to (8.0590302 5.6794138 30.108880) with tilt (4.4408921e-16 0.0000000 0.0000000)
  triclinic box = (0.0000000 0.0000000 0.0000000) to (8.0590302 5.6794138 30.108880) with tilt (4.4408921e-16 0.0000000 0.0000000)
  triclinic box = (0.0000000 0.0000000 0.0000000) to (8.0590302 5.6794138 30.108880) with tilt (4.4408921e-16 0.0000000 0.0000000)
  triclinic box = (0.0000000 0.0000000 0.0000000) to (8.0590302 5.6794138 30.108880) with tilt (4.4408921e-16 0.0000000 0.0000000)
echo none
run 0
WARNING: No fixes with time integration, atoms won't move (src/verlet.cpp:60)
Per MPI rank memory allocation (min/avg/max) = 58.47 | 58.47 | 58.47 Mbytes
PotEng Pxx E_mol E_coul 
  -6.0215201    194.75498            0            0 
Loop time of 2.745e-06 on 64 procs for 0 steps with 12 atoms

1748.6% CPU use with 1 MPI tasks x 64 OpenMP threads

MPI task timing breakdown:
Section |  min time  |  avg time  |  max time  |%varavg| %total
---------------------------------------------------------------
Pair    | 0          | 0          | 0          |   0.0 |  0.00
Neigh   | 0          | 0          | 0          |   0.0 |  0.00
Comm    | 0          | 0          | 0          |   0.0 |  0.00
Output  | 0          | 0          | 0          |   0.0 |  0.00
Modify  | 0          | 0          | 0          |   0.0 |  0.00
Other   |            | 2.745e-06  |            |       |100.00

Nlocal:        12.0000 ave          12 max          12 min
Histogram: 1 0 0 0 0 0 0 0 0 0
Nghost:        116.000 ave         116 max         116 min
Histogram: 1 0 0 0 0 0 0 0 0 0
Neighs:         0.00000 ave           0 max           0 min
Histogram: 1 0 0 0 0 0 0 0 0 0
FullNghs:      190.000 ave         190 max         190 min
Histogram: 1 0 0 0 0 0 0 0 0 0

Total # of neighbors = 190
Ave neighs/atom = 15.833333
Neighbor list builds = 0
Dangerous builds = 0
set atom * x 0.0 y 0.0 z 0.0
Setting atom values ...
  12 settings made for x
  12 settings made for y
  12 settings made for z
change_box all     x final 0 8.059030207162023 y final 0 5.6794138418255855 z final 0 30.10888      xy final 4.440892098500626e-16 xz final 0.0 yz final 0.0 units box
Changing box ...
  triclinic box = (0.0000000 0.0000000 0.0000000) to (8.0590302 5.6794138 30.108880) with tilt (4.4408921e-16 0.0000000 0.0000000)
  triclinic box = (0.0000000 0.0000000 0.0000000) to (8.0590302 5.6794138 30.108880) with tilt (4.4408921e-16 0.0000000 0.0000000)
  triclinic box = (0.0000000 0.0000000 0.0000000) to (8.0590302 5.6794138 30.108880) with tilt (4.4408921e-16 0.0000000 0.0000000)
  triclinic box = (0.0000000 0.0000000 0.0000000) to (8.0590302 5.6794138 30.108880) with tilt (4.4408921e-16 0.0000000 0.0000000)
  triclinic box = (0.0000000 0.0000000 0.0000000) to (8.0590302 5.6794138 30.108880) with tilt (4.4408921e-16 0.0000000 0.0000000)
  triclinic box = (0.0000000 0.0000000 0.0000000) to (8.0590302 5.6794138 30.108880) with tilt (4.4408921e-16 0.0000000 0.0000000)
echo none
run 0
WARNING: No fixes with time integration, atoms won't move (src/verlet.cpp:60)
Per MPI rank memory allocation (min/avg/max) = 58.47 | 58.47 | 58.47 Mbytes
PotEng Pxx E_mol E_coul 
  -6.0215201    194.75498            0            0 
Loop time of 2.715e-06 on 64 procs for 0 steps with 12 atoms

1694.3% CPU use with 1 MPI tasks x 64 OpenMP threads

MPI task timing breakdown:
Section |  min time  |  avg time  |  max time  |%varavg| %total
---------------------------------------------------------------
Pair    | 0          | 0          | 0          |   0.0 |  0.00
Neigh   | 0          | 0          | 0          |   0.0 |  0.00
Comm    | 0          | 0          | 0          |   0.0 |  0.00
Output  | 0          | 0          | 0          |   0.0 |  0.00
Modify  | 0          | 0          | 0          |   0.0 |  0.00
Other   |            | 2.715e-06  |            |       |100.00

Nlocal:        12.0000 ave          12 max          12 min
Histogram: 1 0 0 0 0 0 0 0 0 0
Nghost:        116.000 ave         116 max         116 min
Histogram: 1 0 0 0 0 0 0 0 0 0
Neighs:         0.00000 ave           0 max           0 min
Histogram: 1 0 0 0 0 0 0 0 0 0
FullNghs:      190.000 ave         190 max         190 min
Histogram: 1 0 0 0 0 0 0 0 0 0

Total # of neighbors = 190
Ave neighs/atom = 15.833333
Neighbor list builds = 0
Dangerous builds = 0
set atom * x 0.0 y 0.0 z 0.0
Setting atom values ...
  12 settings made for x
  12 settings made for y
  12 settings made for z
change_box all     x final 0 8.059030207162023 y final 0 5.6794138418255855 z final 0 30.10888      xy final 4.440892098500626e-16 xz final 0.0 yz final 0.0 units box
Changing box ...
  triclinic box = (0.0000000 0.0000000 0.0000000) to (8.0590302 5.6794138 30.108880) with tilt (4.4408921e-16 0.0000000 0.0000000)
  triclinic box = (0.0000000 0.0000000 0.0000000) to (8.0590302 5.6794138 30.108880) with tilt (4.4408921e-16 0.0000000 0.0000000)
  triclinic box = (0.0000000 0.0000000 0.0000000) to (8.0590302 5.6794138 30.108880) with tilt (4.4408921e-16 0.0000000 0.0000000)
  triclinic box = (0.0000000 0.0000000 0.0000000) to (8.0590302 5.6794138 30.108880) with tilt (4.4408921e-16 0.0000000 0.0000000)
  triclinic box = (0.0000000 0.0000000 0.0000000) to (8.0590302 5.6794138 30.108880) with tilt (4.4408921e-16 0.0000000 0.0000000)
  triclinic box = (0.0000000 0.0000000 0.0000000) to (8.0590302 5.6794138 30.108880) with tilt (4.4408921e-16 0.0000000 0.0000000)
echo none
run 0
WARNING: No fixes with time integration, atoms won't move (src/verlet.cpp:60)
Per MPI rank memory allocation (min/avg/max) = 58.47 | 58.47 | 58.47 Mbytes
PotEng Pxx E_mol E_coul 
  -6.0215201    194.75498            0            0 
Loop time of 2.725e-06 on 64 procs for 0 steps with 12 atoms

0.0% CPU use with 1 MPI tasks x 64 OpenMP threads

MPI task timing breakdown:
Section |  min time  |  avg time  |  max time  |%varavg| %total
---------------------------------------------------------------
Pair    | 0          | 0          | 0          |   0.0 |  0.00
Neigh   | 0          | 0          | 0          |   0.0 |  0.00
Comm    | 0          | 0          | 0          |   0.0 |  0.00
Output  | 0          | 0          | 0          |   0.0 |  0.00
Modify  | 0          | 0          | 0          |   0.0 |  0.00
Other   |            | 2.725e-06  |            |       |100.00

Nlocal:        12.0000 ave          12 max          12 min
Histogram: 1 0 0 0 0 0 0 0 0 0
Nghost:        116.000 ave         116 max         116 min
Histogram: 1 0 0 0 0 0 0 0 0 0
Neighs:         0.00000 ave           0 max           0 min
Histogram: 1 0 0 0 0 0 0 0 0 0
FullNghs:      190.000 ave         190 max         190 min
Histogram: 1 0 0 0 0 0 0 0 0 0

Total # of neighbors = 190
Ave neighs/atom = 15.833333
Neighbor list builds = 0
Dangerous builds = 0
change_box all boundary p p p
Changing box ...
set atom * x 0.0 y 0.0 z 0.0
Setting atom values ...
  12 settings made for x
  12 settings made for y
  12 settings made for z
change_box all     x final 0 8.059030207162023 y final 0 5.6794138418255855 z final 0 30.10888      xy final 4.440892098500626e-16 xz final 0.0 yz final 0.0 units box
Changing box ...
  triclinic box = (0.0000000 0.0000000 0.0000000) to (8.0590302 5.6794138 30.108880) with tilt (4.4408921e-16 0.0000000 0.0000000)
  triclinic box = (0.0000000 0.0000000 0.0000000) to (8.0590302 5.6794138 30.108880) with tilt (4.4408921e-16 0.0000000 0.0000000)
  triclinic box = (0.0000000 0.0000000 0.0000000) to (8.0590302 5.6794138 30.108880) with tilt (4.4408921e-16 0.0000000 0.0000000)
  triclinic box = (0.0000000 0.0000000 0.0000000) to (8.0590302 5.6794138 30.108880) with tilt (4.4408921e-16 0.0000000 0.0000000)
  triclinic box = (0.0000000 0.0000000 0.0000000) to (8.0590302 5.6794138 30.108880) with tilt (4.4408921e-16 0.0000000 0.0000000)
  triclinic box = (0.0000000 0.0000000 0.0000000) to (8.0590302 5.6794138 30.108880) with tilt (4.4408921e-16 0.0000000 0.0000000)
echo none
run 0
WARNING: No fixes with time integration, atoms won't move (src/verlet.cpp:60)
Per MPI rank memory allocation (min/avg/max) = 58.47 | 58.47 | 58.47 Mbytes
PotEng Pxx E_mol E_coul 
  -6.0371375    235.28747            0            0 
Loop time of 2.805e-06 on 64 procs for 0 steps with 12 atoms

0.0% CPU use with 1 MPI tasks x 64 OpenMP threads

MPI task timing breakdown:
Section |  min time  |  avg time  |  max time  |%varavg| %total
---------------------------------------------------------------
Pair    | 0          | 0          | 0          |   0.0 |  0.00
Neigh   | 0          | 0          | 0          |   0.0 |  0.00
Comm    | 0          | 0          | 0          |   0.0 |  0.00
Output  | 0          | 0          | 0          |   0.0 |  0.00
Modify  | 0          | 0          | 0          |   0.0 |  0.00
Other   |            | 2.805e-06  |            |       |100.00

Nlocal:        12.0000 ave          12 max          12 min
Histogram: 1 0 0 0 0 0 0 0 0 0
Nghost:        116.000 ave         116 max         116 min
Histogram: 1 0 0 0 0 0 0 0 0 0
Neighs:         0.00000 ave           0 max           0 min
Histogram: 1 0 0 0 0 0 0 0 0 0
FullNghs:      190.000 ave         190 max         190 min
Histogram: 1 0 0 0 0 0 0 0 0 0

Total # of neighbors = 190
Ave neighs/atom = 15.833333
Neighbor list builds = 0
Dangerous builds = 0
set atom * x 0.0 y 0.0 z 0.0
Setting atom values ...
  12 settings made for x
  12 settings made for y
  12 settings made for z
change_box all     x final 0 8.059030207162023 y final 0 5.6794138418255855 z final 0 30.10888      xy final 4.440892098500626e-16 xz final 0.0 yz final 0.0 units box
Changing box ...
  triclinic box = (0.0000000 0.0000000 0.0000000) to (8.0590302 5.6794138 30.108880) with tilt (4.4408921e-16 0.0000000 0.0000000)
  triclinic box = (0.0000000 0.0000000 0.0000000) to (8.0590302 5.6794138 30.108880) with tilt (4.4408921e-16 0.0000000 0.0000000)
  triclinic box = (0.0000000 0.0000000 0.0000000) to (8.0590302 5.6794138 30.108880) with tilt (4.4408921e-16 0.0000000 0.0000000)
  triclinic box = (0.0000000 0.0000000 0.0000000) to (8.0590302 5.6794138 30.108880) with tilt (4.4408921e-16 0.0000000 0.0000000)
  triclinic box = (0.0000000 0.0000000 0.0000000) to (8.0590302 5.6794138 30.108880) with tilt (4.4408921e-16 0.0000000 0.0000000)
  triclinic box = (0.0000000 0.0000000 0.0000000) to (8.0590302 5.6794138 30.108880) with tilt (4.4408921e-16 0.0000000 0.0000000)
echo none
run 0
WARNING: No fixes with time integration, atoms won't move (src/verlet.cpp:60)
Per MPI rank memory allocation (min/avg/max) = 58.47 | 58.47 | 58.47 Mbytes
PotEng Pxx E_mol E_coul 
  -6.0371375    235.28747            0            0 
Loop time of 2.685e-06 on 64 procs for 0 steps with 12 atoms

0.0% CPU use with 1 MPI tasks x 64 OpenMP threads

MPI task timing breakdown:
Section |  min time  |  avg time  |  max time  |%varavg| %total
---------------------------------------------------------------
Pair    | 0          | 0          | 0          |   0.0 |  0.00
Neigh   | 0          | 0          | 0          |   0.0 |  0.00
Comm    | 0          | 0          | 0          |   0.0 |  0.00
Output  | 0          | 0          | 0          |   0.0 |  0.00
Modify  | 0          | 0          | 0          |   0.0 |  0.00
Other   |            | 2.685e-06  |            |       |100.00

Nlocal:        12.0000 ave          12 max          12 min
Histogram: 1 0 0 0 0 0 0 0 0 0
Nghost:        116.000 ave         116 max         116 min
Histogram: 1 0 0 0 0 0 0 0 0 0
Neighs:         0.00000 ave           0 max           0 min
Histogram: 1 0 0 0 0 0 0 0 0 0
FullNghs:      190.000 ave         190 max         190 min
Histogram: 1 0 0 0 0 0 0 0 0 0

Total # of neighbors = 190
Ave neighs/atom = 15.833333
Neighbor list builds = 0
Dangerous builds = 0
set atom * x 0.0 y 0.0 z 0.0
Setting atom values ...
  12 settings made for x
  12 settings made for y
  12 settings made for z
change_box all     x final 0 8.059030207162023 y final 0 5.6794138418255855 z final 0 30.10888      xy final 4.440892098500626e-16 xz final 0.0 yz final 0.0 units box
Changing box ...
  triclinic box = (0.0000000 0.0000000 0.0000000) to (8.0590302 5.6794138 30.108880) with tilt (4.4408921e-16 0.0000000 0.0000000)
  triclinic box = (0.0000000 0.0000000 0.0000000) to (8.0590302 5.6794138 30.108880) with tilt (4.4408921e-16 0.0000000 0.0000000)
  triclinic box = (0.0000000 0.0000000 0.0000000) to (8.0590302 5.6794138 30.108880) with tilt (4.4408921e-16 0.0000000 0.0000000)
  triclinic box = (0.0000000 0.0000000 0.0000000) to (8.0590302 5.6794138 30.108880) with tilt (4.4408921e-16 0.0000000 0.0000000)
  triclinic box = (0.0000000 0.0000000 0.0000000) to (8.0590302 5.6794138 30.108880) with tilt (4.4408921e-16 0.0000000 0.0000000)
  triclinic box = (0.0000000 0.0000000 0.0000000) to (8.0590302 5.6794138 30.108880) with tilt (4.4408921e-16 0.0000000 0.0000000)
echo none
run 0
WARNING: No fixes with time integration, atoms won't move (src/verlet.cpp:60)
Per MPI rank memory allocation (min/avg/max) = 58.47 | 58.47 | 58.47 Mbytes
PotEng Pxx E_mol E_coul 
  -6.0371375    235.28747            0            0 
Loop time of 2.765e-06 on 64 procs for 0 steps with 12 atoms

1736.0% CPU use with 1 MPI tasks x 64 OpenMP threads

MPI task timing breakdown:
Section |  min time  |  avg time  |  max time  |%varavg| %total
---------------------------------------------------------------
Pair    | 0          | 0          | 0          |   0.0 |  0.00
Neigh   | 0          | 0          | 0          |   0.0 |  0.00
Comm    | 0          | 0          | 0          |   0.0 |  0.00
Output  | 0          | 0          | 0          |   0.0 |  0.00
Modify  | 0          | 0          | 0          |   0.0 |  0.00
Other   |            | 2.765e-06  |            |       |100.00

Nlocal:        12.0000 ave          12 max          12 min
Histogram: 1 0 0 0 0 0 0 0 0 0
Nghost:        116.000 ave         116 max         116 min
Histogram: 1 0 0 0 0 0 0 0 0 0
Neighs:         0.00000 ave           0 max           0 min
Histogram: 1 0 0 0 0 0 0 0 0 0
FullNghs:      190.000 ave         190 max         190 min
Histogram: 1 0 0 0 0 0 0 0 0 0

Total # of neighbors = 190
Ave neighs/atom = 15.833333
Neighbor list builds = 0
Dangerous builds = 0
change_box all boundary p p p
Changing box ...
set atom * x 0.0 y 0.0 z 0.0
Setting atom values ...
  12 settings made for x
  12 settings made for y
  12 settings made for z
change_box all     x final 0 8.059030207162023 y final 0 5.6794138418255855 z final 0 30.10888      xy final 4.440892098500626e-16 xz final 0.0 yz final 0.0 units box
Changing box ...
  triclinic box = (0.0000000 0.0000000 0.0000000) to (8.0590302 5.6794138 30.108880) with tilt (4.4408921e-16 0.0000000 0.0000000)
  triclinic box = (0.0000000 0.0000000 0.0000000) to (8.0590302 5.6794138 30.108880) with tilt (4.4408921e-16 0.0000000 0.0000000)
  triclinic box = (0.0000000 0.0000000 0.0000000) to (8.0590302 5.6794138 30.108880) with tilt (4.4408921e-16 0.0000000 0.0000000)
  triclinic box = (0.0000000 0.0000000 0.0000000) to (8.0590302 5.6794138 30.108880) with tilt (4.4408921e-16 0.0000000 0.0000000)
  triclinic box = (0.0000000 0.0000000 0.0000000) to (8.0590302 5.6794138 30.108880) with tilt (4.4408921e-16 0.0000000 0.0000000)
  triclinic box = (0.0000000 0.0000000 0.0000000) to (8.0590302 5.6794138 30.108880) with tilt (4.4408921e-16 0.0000000 0.0000000)
echo none
run 0
WARNING: No fixes with time integration, atoms won't move (src/verlet.cpp:60)
Per MPI rank memory allocation (min/avg/max) = 58.47 | 58.47 | 58.47 Mbytes
PotEng Pxx E_mol E_coul 
  -6.0741847    292.90098            0            0 
Loop time of 2.825e-06 on 64 procs for 0 steps with 12 atoms

1769.9% CPU use with 1 MPI tasks x 64 OpenMP threads

MPI task timing breakdown:
Section |  min time  |  avg time  |  max time  |%varavg| %total
---------------------------------------------------------------
Pair    | 0          | 0          | 0          |   0.0 |  0.00
Neigh   | 0          | 0          | 0          |   0.0 |  0.00
Comm    | 0          | 0          | 0          |   0.0 |  0.00
Output  | 0          | 0          | 0          |   0.0 |  0.00
Modify  | 0          | 0          | 0          |   0.0 |  0.00
Other   |            | 2.825e-06  |            |       |100.00

Nlocal:        12.0000 ave          12 max          12 min
Histogram: 1 0 0 0 0 0 0 0 0 0
Nghost:        116.000 ave         116 max         116 min
Histogram: 1 0 0 0 0 0 0 0 0 0
Neighs:         0.00000 ave           0 max           0 min
Histogram: 1 0 0 0 0 0 0 0 0 0
FullNghs:      190.000 ave         190 max         190 min
Histogram: 1 0 0 0 0 0 0 0 0 0

Total # of neighbors = 190
Ave neighs/atom = 15.833333
Neighbor list builds = 0
Dangerous builds = 0
set atom * x 0.0 y 0.0 z 0.0
Setting atom values ...
  12 settings made for x
  12 settings made for y
  12 settings made for z
change_box all     x final 0 8.059030207162023 y final 0 5.6794138418255855 z final 0 30.10888      xy final 4.440892098500626e-16 xz final 0.0 yz final 0.0 units box
Changing box ...
  triclinic box = (0.0000000 0.0000000 0.0000000) to (8.0590302 5.6794138 30.108880) with tilt (4.4408921e-16 0.0000000 0.0000000)
  triclinic box = (0.0000000 0.0000000 0.0000000) to (8.0590302 5.6794138 30.108880) with tilt (4.4408921e-16 0.0000000 0.0000000)
  triclinic box = (0.0000000 0.0000000 0.0000000) to (8.0590302 5.6794138 30.108880) with tilt (4.4408921e-16 0.0000000 0.0000000)
  triclinic box = (0.0000000 0.0000000 0.0000000) to (8.0590302 5.6794138 30.108880) with tilt (4.4408921e-16 0.0000000 0.0000000)
  triclinic box = (0.0000000 0.0000000 0.0000000) to (8.0590302 5.6794138 30.108880) with tilt (4.4408921e-16 0.0000000 0.0000000)
  triclinic box = (0.0000000 0.0000000 0.0000000) to (8.0590302 5.6794138 30.108880) with tilt (4.4408921e-16 0.0000000 0.0000000)
echo none
run 0
WARNING: No fixes with time integration, atoms won't move (src/verlet.cpp:60)
Per MPI rank memory allocation (min/avg/max) = 58.47 | 58.47 | 58.47 Mbytes
PotEng Pxx E_mol E_coul 
  -6.0741847    292.90098            0            0 
Loop time of 2.785e-06 on 64 procs for 0 steps with 12 atoms

1579.9% CPU use with 1 MPI tasks x 64 OpenMP threads

MPI task timing breakdown:
Section |  min time  |  avg time  |  max time  |%varavg| %total
---------------------------------------------------------------
Pair    | 0          | 0          | 0          |   0.0 |  0.00
Neigh   | 0          | 0          | 0          |   0.0 |  0.00
Comm    | 0          | 0          | 0          |   0.0 |  0.00
Output  | 0          | 0          | 0          |   0.0 |  0.00
Modify  | 0          | 0          | 0          |   0.0 |  0.00
Other   |            | 2.785e-06  |            |       |100.00

Nlocal:        12.0000 ave          12 max          12 min
Histogram: 1 0 0 0 0 0 0 0 0 0
Nghost:        116.000 ave         116 max         116 min
[...]
Output  | 0          | 0          | 0          |   0.0 |  0.00
Modify  | 0          | 0          | 0          |   0.0 |  0.00
Other   |            | 2.776e-06  |            |       |100.00

Nlocal:        12.0000 ave          12 max          12 min
Histogram: 1 0 0 0 0 0 0 0 0 0
Nghost:        116.000 ave         116 max         116 min
Histogram: 1 0 0 0 0 0 0 0 0 0
Neighs:         0.00000 ave           0 max           0 min
Histogram: 1 0 0 0 0 0 0 0 0 0
FullNghs:      192.000 ave         192 max         192 min
Histogram: 1 0 0 0 0 0 0 0 0 0

Total # of neighbors = 192
Ave neighs/atom = 16.000000
Neighbor list builds = 0
Dangerous builds = 0
set atom * x 0.0 y 0.0 z 0.0
Setting atom values ...
  12 settings made for x
  12 settings made for y
  12 settings made for z
change_box all     x final 0 8.059030207162023 y final 0 5.6794138418255855 z final 0 30.10888      xy final 4.440892098500626e-16 xz final 0.0 yz final 0.0 units box
Changing box ...
  triclinic box = (0.0000000 0.0000000 0.0000000) to (8.0590302 5.6794138 30.108880) with tilt (4.4408921e-16 0.0000000 0.0000000)
  triclinic box = (0.0000000 0.0000000 0.0000000) to (8.0590302 5.6794138 30.108880) with tilt (4.4408921e-16 0.0000000 0.0000000)
  triclinic box = (0.0000000 0.0000000 0.0000000) to (8.0590302 5.6794138 30.108880) with tilt (4.4408921e-16 0.0000000 0.0000000)
  triclinic box = (0.0000000 0.0000000 0.0000000) to (8.0590302 5.6794138 30.108880) with tilt (4.4408921e-16 0.0000000 0.0000000)
  triclinic box = (0.0000000 0.0000000 0.0000000) to (8.0590302 5.6794138 30.108880) with tilt (4.4408921e-16 0.0000000 0.0000000)
  triclinic box = (0.0000000 0.0000000 0.0000000) to (8.0590302 5.6794138 30.108880) with tilt (4.4408921e-16 0.0000000 0.0000000)
echo none
run 0
Per MPI rank memory allocation (min/avg/max) = 58.47 | 58.47 | 58.47 Mbytes
PotEng Pxx E_mol E_coul 
  -6.4195616   -340.86388            0            0 
Loop time of 2.795e-06 on 64 procs for 0 steps with 12 atoms

1896.2% CPU use with 1 MPI tasks x 64 OpenMP threads

MPI task timing breakdown:
Section |  min time  |  avg time  |  max time  |%varavg| %total
---------------------------------------------------------------
Pair    | 0          | 0          | 0          |   0.0 |  0.00
Neigh   | 0          | 0          | 0          |   0.0 |  0.00
Comm    | 0          | 0          | 0          |   0.0 |  0.00
Output  | 0          | 0          | 0          |   0.0 |  0.00
Modify  | 0          | 0          | 0          |   0.0 |  0.00
Other   |            | 2.795e-06  |            |       |100.00

Nlocal:        12.0000 ave          12 max          12 min
Histogram: 1 0 0 0 0 0 0 0 0 0
Nghost:        116.000 ave         116 max         116 min
Histogram: 1 0 0 0 0 0 0 0 0 0
Neighs:         0.00000 ave           0 max           0 min
Histogram: 1 0 0 0 0 0 0 0 0 0
FullNghs:      192.000 ave         192 max         192 min
Histogram: 1 0 0 0 0 0 0 0 0 0

Total # of neighbors = 192
Ave neighs/atom = 16.000000
Neighbor list builds = 0
Dangerous builds = 0
set atom * x 0.0 y 0.0 z 0.0
Setting atom values ...
  12 settings made for x
  12 settings made for y
  12 settings made for z
change_box all     x final 0 8.059030207162023 y final 0 5.6794138418255855 z final 0 30.10888      xy final 4.440892098500626e-16 xz final 0.0 yz final 0.0 units box
Changing box ...
  triclinic box = (0.0000000 0.0000000 0.0000000) to (8.0590302 5.6794138 30.108880) with tilt (4.4408921e-16 0.0000000 0.0000000)
  triclinic box = (0.0000000 0.0000000 0.0000000) to (8.0590302 5.6794138 30.108880) with tilt (4.4408921e-16 0.0000000 0.0000000)
  triclinic box = (0.0000000 0.0000000 0.0000000) to (8.0590302 5.6794138 30.108880) with tilt (4.4408921e-16 0.0000000 0.0000000)
  triclinic box = (0.0000000 0.0000000 0.0000000) to (8.0590302 5.6794138 30.108880) with tilt (4.4408921e-16 0.0000000 0.0000000)
  triclinic box = (0.0000000 0.0000000 0.0000000) to (8.0590302 5.6794138 30.108880) with tilt (4.4408921e-16 0.0000000 0.0000000)
  triclinic box = (0.0000000 0.0000000 0.0000000) to (8.0590302 5.6794138 30.108880) with tilt (4.4408921e-16 0.0000000 0.0000000)
echo none
run 0
Per MPI rank memory allocation (min/avg/max) = 58.47 | 58.47 | 58.47 Mbytes
PotEng Pxx E_mol E_coul 
  -6.4195616   -340.86388            0            0 
Loop time of 2.665e-06 on 64 procs for 0 steps with 12 atoms

0.0% CPU use with 1 MPI tasks x 64 OpenMP threads

MPI task timing breakdown:
Section |  min time  |  avg time  |  max time  |%varavg| %total
---------------------------------------------------------------
Pair    | 0          | 0          | 0          |   0.0 |  0.00
Neigh   | 0          | 0          | 0          |   0.0 |  0.00
Comm    | 0          | 0          | 0          |   0.0 |  0.00
Output  | 0          | 0          | 0          |   0.0 |  0.00
Modify  | 0          | 0          | 0          |   0.0 |  0.00
Other   |            | 2.665e-06  |            |       |100.00

Nlocal:        12.0000 ave          12 max          12 min
Histogram: 1 0 0 0 0 0 0 0 0 0
Nghost:        116.000 ave         116 max         116 min
Histogram: 1 0 0 0 0 0 0 0 0 0
Neighs:         0.00000 ave           0 max           0 min
Histogram: 1 0 0 0 0 0 0 0 0 0
FullNghs:      192.000 ave         192 max         192 min
Histogram: 1 0 0 0 0 0 0 0 0 0

Total # of neighbors = 192
Ave neighs/atom = 16.000000
Neighbor list builds = 0
Dangerous builds = 0
change_box all boundary p p p
Changing box ...
set atom * x 0.0 y 0.0 z 0.0
Setting atom values ...
  12 settings made for x
  12 settings made for y
  12 settings made for z
change_box all     x final 0 8.059030207162023 y final 0 5.6794138418255855 z final 0 30.10888      xy final 4.440892098500626e-16 xz final 0.0 yz final 0.0 units box
Changing box ...
  triclinic box = (0.0000000 0.0000000 0.0000000) to (8.0590302 5.6794138 30.108880) with tilt (4.4408921e-16 0.0000000 0.0000000)
  triclinic box = (0.0000000 0.0000000 0.0000000) to (8.0590302 5.6794138 30.108880) with tilt (4.4408921e-16 0.0000000 0.0000000)
  triclinic box = (0.0000000 0.0000000 0.0000000) to (8.0590302 5.6794138 30.108880) with tilt (4.4408921e-16 0.0000000 0.0000000)
  triclinic box = (0.0000000 0.0000000 0.0000000) to (8.0590302 5.6794138 30.108880) with tilt (4.4408921e-16 0.0000000 0.0000000)
  triclinic box = (0.0000000 0.0000000 0.0000000) to (8.0590302 5.6794138 30.108880) with tilt (4.4408921e-16 0.0000000 0.0000000)
  triclinic box = (0.0000000 0.0000000 0.0000000) to (8.0590302 5.6794138 30.108880) with tilt (4.4408921e-16 0.0000000 0.0000000)
echo none
run 0
Per MPI rank memory allocation (min/avg/max) = 58.47 | 58.47 | 58.47 Mbytes
PotEng Pxx E_mol E_coul 
  -6.4195358   -338.75831            0            0 
Loop time of 2.765e-06 on 64 procs for 0 steps with 12 atoms

1880.7% CPU use with 1 MPI tasks x 64 OpenMP threads

MPI task timing breakdown:
Section |  min time  |  avg time  |  max time  |%varavg| %total
---------------------------------------------------------------
Pair    | 0          | 0          | 0          |   0.0 |  0.00
Neigh   | 0          | 0          | 0          |   0.0 |  0.00
Comm    | 0          | 0          | 0          |   0.0 |  0.00
Output  | 0          | 0          | 0          |   0.0 |  0.00
Modify  | 0          | 0          | 0          |   0.0 |  0.00
Other   |            | 2.765e-06  |            |       |100.00

Nlocal:        12.0000 ave          12 max          12 min
Histogram: 1 0 0 0 0 0 0 0 0 0
Nghost:        116.000 ave         116 max         116 min
Histogram: 1 0 0 0 0 0 0 0 0 0
Neighs:         0.00000 ave           0 max           0 min
Histogram: 1 0 0 0 0 0 0 0 0 0
FullNghs:      192.000 ave         192 max         192 min
Histogram: 1 0 0 0 0 0 0 0 0 0

Total # of neighbors = 192
Ave neighs/atom = 16.000000
Neighbor list builds = 0
Dangerous builds = 0
set atom * x 0.0 y 0.0 z 0.0
Setting atom values ...
  12 settings made for x
  12 settings made for y
  12 settings made for z
change_box all     x final 0 8.059030207162023 y final 0 5.6794138418255855 z final 0 30.10888      xy final 4.440892098500626e-16 xz final 0.0 yz final 0.0 units box
Changing box ...
  triclinic box = (0.0000000 0.0000000 0.0000000) to (8.0590302 5.6794138 30.108880) with tilt (4.4408921e-16 0.0000000 0.0000000)
  triclinic box = (0.0000000 0.0000000 0.0000000) to (8.0590302 5.6794138 30.108880) with tilt (4.4408921e-16 0.0000000 0.0000000)
  triclinic box = (0.0000000 0.0000000 0.0000000) to (8.0590302 5.6794138 30.108880) with tilt (4.4408921e-16 0.0000000 0.0000000)
  triclinic box = (0.0000000 0.0000000 0.0000000) to (8.0590302 5.6794138 30.108880) with tilt (4.4408921e-16 0.0000000 0.0000000)
  triclinic box = (0.0000000 0.0000000 0.0000000) to (8.0590302 5.6794138 30.108880) with tilt (4.4408921e-16 0.0000000 0.0000000)
  triclinic box = (0.0000000 0.0000000 0.0000000) to (8.0590302 5.6794138 30.108880) with tilt (4.4408921e-16 0.0000000 0.0000000)
echo none
run 0
Per MPI rank memory allocation (min/avg/max) = 58.47 | 58.47 | 58.47 Mbytes
PotEng Pxx E_mol E_coul 
  -6.4195358   -338.75831            0            0 
Loop time of 2.745e-06 on 64 procs for 0 steps with 12 atoms

0.0% CPU use with 1 MPI tasks x 64 OpenMP threads

MPI task timing breakdown:
Section |  min time  |  avg time  |  max time  |%varavg| %total
---------------------------------------------------------------
Pair    | 0          | 0          | 0          |   0.0 |  0.00
Neigh   | 0          | 0          | 0          |   0.0 |  0.00
Comm    | 0          | 0          | 0          |   0.0 |  0.00
Output  | 0          | 0          | 0          |   0.0 |  0.00
Modify  | 0          | 0          | 0          |   0.0 |  0.00
Other   |            | 2.745e-06  |            |       |100.00

Nlocal:        12.0000 ave          12 max          12 min
Histogram: 1 0 0 0 0 0 0 0 0 0
Nghost:        116.000 ave         116 max         116 min
Histogram: 1 0 0 0 0 0 0 0 0 0
Neighs:         0.00000 ave           0 max           0 min
Histogram: 1 0 0 0 0 0 0 0 0 0
FullNghs:      192.000 ave         192 max         192 min
Histogram: 1 0 0 0 0 0 0 0 0 0

Total # of neighbors = 192
Ave neighs/atom = 16.000000
Neighbor list builds = 0
Dangerous builds = 0
set atom * x 0.0 y 0.0 z 0.0
Setting atom values ...
  12 settings made for x
  12 settings made for y
  12 settings made for z
change_box all     x final 0 8.059030207162023 y final 0 5.6794138418255855 z final 0 30.10888      xy final 4.440892098500626e-16 xz final 0.0 yz final 0.0 units box
Changing box ...
  triclinic box = (0.0000000 0.0000000 0.0000000) to (8.0590302 5.6794138 30.108880) with tilt (4.4408921e-16 0.0000000 0.0000000)
  triclinic box = (0.0000000 0.0000000 0.0000000) to (8.0590302 5.6794138 30.108880) with tilt (4.4408921e-16 0.0000000 0.0000000)
  triclinic box = (0.0000000 0.0000000 0.0000000) to (8.0590302 5.6794138 30.108880) with tilt (4.4408921e-16 0.0000000 0.0000000)
  triclinic box = (0.0000000 0.0000000 0.0000000) to (8.0590302 5.6794138 30.108880) with tilt (4.4408921e-16 0.0000000 0.0000000)
  triclinic box = (0.0000000 0.0000000 0.0000000) to (8.0590302 5.6794138 30.108880) with tilt (4.4408921e-16 0.0000000 0.0000000)
  triclinic box = (0.0000000 0.0000000 0.0000000) to (8.0590302 5.6794138 30.108880) with tilt (4.4408921e-16 0.0000000 0.0000000)
echo none
run 0
Per MPI rank memory allocation (min/avg/max) = 58.47 | 58.47 | 58.47 Mbytes
PotEng Pxx E_mol E_coul 
  -6.4195358   -338.75831            0            0 
Loop time of 2.745e-06 on 64 procs for 0 steps with 12 atoms

1894.4% CPU use with 1 MPI tasks x 64 OpenMP threads

MPI task timing breakdown:
Section |  min time  |  avg time  |  max time  |%varavg| %total
---------------------------------------------------------------
Pair    | 0          | 0          | 0          |   0.0 |  0.00
Neigh   | 0          | 0          | 0          |   0.0 |  0.00
Comm    | 0          | 0          | 0          |   0.0 |  0.00
Output  | 0          | 0          | 0          |   0.0 |  0.00
Modify  | 0          | 0          | 0          |   0.0 |  0.00
Other   |            | 2.745e-06  |            |       |100.00

Nlocal:        12.0000 ave          12 max          12 min
Histogram: 1 0 0 0 0 0 0 0 0 0
Nghost:        116.000 ave         116 max         116 min
Histogram: 1 0 0 0 0 0 0 0 0 0
Neighs:         0.00000 ave           0 max           0 min
Histogram: 1 0 0 0 0 0 0 0 0 0
FullNghs:      192.000 ave         192 max         192 min
Histogram: 1 0 0 0 0 0 0 0 0 0

Total # of neighbors = 192
Ave neighs/atom = 16.000000
Neighbor list builds = 0
Dangerous builds = 0
change_box all boundary p p p
Changing box ...
set atom * x 0.0 y 0.0 z 0.0
Setting atom values ...
  12 settings made for x
  12 settings made for y
  12 settings made for z
change_box all     x final 0 8.059030207162023 y final 0 5.6794138418255855 z final 0 30.10888      xy final 4.440892098500626e-16 xz final 0.0 yz final 0.0 units box
Changing box ...
  triclinic box = (0.0000000 0.0000000 0.0000000) to (8.0590302 5.6794138 30.108880) with tilt (4.4408921e-16 0.0000000 0.0000000)
  triclinic box = (0.0000000 0.0000000 0.0000000) to (8.0590302 5.6794138 30.108880) with tilt (4.4408921e-16 0.0000000 0.0000000)
  triclinic box = (0.0000000 0.0000000 0.0000000) to (8.0590302 5.6794138 30.108880) with tilt (4.4408921e-16 0.0000000 0.0000000)
  triclinic box = (0.0000000 0.0000000 0.0000000) to (8.0590302 5.6794138 30.108880) with tilt (4.4408921e-16 0.0000000 0.0000000)
  triclinic box = (0.0000000 0.0000000 0.0000000) to (8.0590302 5.6794138 30.108880) with tilt (4.4408921e-16 0.0000000 0.0000000)
  triclinic box = (0.0000000 0.0000000 0.0000000) to (8.0590302 5.6794138 30.108880) with tilt (4.4408921e-16 0.0000000 0.0000000)
echo none
run 0
Per MPI rank memory allocation (min/avg/max) = 58.47 | 58.47 | 58.47 Mbytes
PotEng Pxx E_mol E_coul 
  -6.4194785   -336.72716            0            0 
Loop time of 2.945e-06 on 64 procs for 0 steps with 12 atoms

0.0% CPU use with 1 MPI tasks x 64 OpenMP threads

MPI task timing breakdown:
Section |  min time  |  avg time  |  max time  |%varavg| %total
---------------------------------------------------------------
Pair    | 0          | 0          | 0          |   0.0 |  0.00
Neigh   | 0          | 0          | 0          |   0.0 |  0.00
Comm    | 0          | 0          | 0          |   0.0 |  0.00
Output  | 0          | 0          | 0          |   0.0 |  0.00
Modify  | 0          | 0          | 0          |   0.0 |  0.00
Other   |            | 2.945e-06  |            |       |100.00

Nlocal:        12.0000 ave          12 max          12 min
Histogram: 1 0 0 0 0 0 0 0 0 0
Nghost:        116.000 ave         116 max         116 min
Histogram: 1 0 0 0 0 0 0 0 0 0
Neighs:         0.00000 ave           0 max           0 min
Histogram: 1 0 0 0 0 0 0 0 0 0
FullNghs:      192.000 ave         192 max         192 min
Histogram: 1 0 0 0 0 0 0 0 0 0

Total # of neighbors = 192
Ave neighs/atom = 16.000000
Neighbor list builds = 0
Dangerous builds = 0
set atom * x 0.0 y 0.0 z 0.0
Setting atom values ...
  12 settings made for x
  12 settings made for y
  12 settings made for z
change_box all     x final 0 8.059030207162023 y final 0 5.6794138418255855 z final 0 30.10888      xy final 4.440892098500626e-16 xz final 0.0 yz final 0.0 units box
Changing box ...
  triclinic box = (0.0000000 0.0000000 0.0000000) to (8.0590302 5.6794138 30.108880) with tilt (4.4408921e-16 0.0000000 0.0000000)
  triclinic box = (0.0000000 0.0000000 0.0000000) to (8.0590302 5.6794138 30.108880) with tilt (4.4408921e-16 0.0000000 0.0000000)
  triclinic box = (0.0000000 0.0000000 0.0000000) to (8.0590302 5.6794138 30.108880) with tilt (4.4408921e-16 0.0000000 0.0000000)
  triclinic box = (0.0000000 0.0000000 0.0000000) to (8.0590302 5.6794138 30.108880) with tilt (4.4408921e-16 0.0000000 0.0000000)
  triclinic box = (0.0000000 0.0000000 0.0000000) to (8.0590302 5.6794138 30.108880) with tilt (4.4408921e-16 0.0000000 0.0000000)
  triclinic box = (0.0000000 0.0000000 0.0000000) to (8.0590302 5.6794138 30.108880) with tilt (4.4408921e-16 0.0000000 0.0000000)
echo none
run 0
Per MPI rank memory allocation (min/avg/max) = 58.47 | 58.47 | 58.47 Mbytes
PotEng Pxx E_mol E_coul 
  -6.4194785   -336.72716            0            0 
Loop time of 2.966e-06 on 64 procs for 0 steps with 12 atoms

1854.3% CPU use with 1 MPI tasks x 64 OpenMP threads

MPI task timing breakdown:
Section |  min time  |  avg time  |  max time  |%varavg| %total
---------------------------------------------------------------
Pair    | 0          | 0          | 0          |   0.0 |  0.00
Neigh   | 0          | 0          | 0          |   0.0 |  0.00
Comm    | 0          | 0          | 0          |   0.0 |  0.00
Output  | 0          | 0          | 0          |   0.0 |  0.00
Modify  | 0          | 0          | 0          |   0.0 |  0.00
Other   |            | 2.966e-06  |            |       |100.00

Nlocal:        12.0000 ave          12 max          12 min
Histogram: 1 0 0 0 0 0 0 0 0 0
Nghost:        116.000 ave         116 max         116 min
Histogram: 1 0 0 0 0 0 0 0 0 0
Neighs:         0.00000 ave           0 max           0 min
Histogram: 1 0 0 0 0 0 0 0 0 0
FullNghs:      192.000 ave         192 max         192 min
Histogram: 1 0 0 0 0 0 0 0 0 0

Total # of neighbors = 192
Ave neighs/atom = 16.000000
Neighbor list builds = 0
Dangerous builds = 0
set atom * x 0.0 y 0.0 z 0.0
Setting atom values ...
  12 settings made for x
  12 settings made for y
  12 settings made for z
change_box all     x final 0 8.059030207162023 y final 0 5.6794138418255855 z final 0 30.10888      xy final 4.440892098500626e-16 xz final 0.0 yz final 0.0 units box
Changing box ...
  triclinic box = (0.0000000 0.0000000 0.0000000) to (8.0590302 5.6794138 30.108880) with tilt (4.4408921e-16 0.0000000 0.0000000)
  triclinic box = (0.0000000 0.0000000 0.0000000) to (8.0590302 5.6794138 30.108880) with tilt (4.4408921e-16 0.0000000 0.0000000)
  triclinic box = (0.0000000 0.0000000 0.0000000) to (8.0590302 5.6794138 30.108880) with tilt (4.4408921e-16 0.0000000 0.0000000)
  triclinic box = (0.0000000 0.0000000 0.0000000) to (8.0590302 5.6794138 30.108880) with tilt (4.4408921e-16 0.0000000 0.0000000)
  triclinic box = (0.0000000 0.0000000 0.0000000) to (8.0590302 5.6794138 30.108880) with tilt (4.4408921e-16 0.0000000 0.0000000)
  triclinic box = (0.0000000 0.0000000 0.0000000) to (8.0590302 5.6794138 30.108880) with tilt (4.4408921e-16 0.0000000 0.0000000)
echo none
run 0
Per MPI rank memory allocation (min/avg/max) = 58.47 | 58.47 | 58.47 Mbytes
PotEng Pxx E_mol E_coul 
  -6.4194785   -336.72716            0            0 
Loop time of 3.095e-06 on 64 procs for 0 steps with 12 atoms

0.0% CPU use with 1 MPI tasks x 64 OpenMP threads

MPI task timing breakdown:
Section |  min time  |  avg time  |  max time  |%varavg| %total
---------------------------------------------------------------
Pair    | 0          | 0          | 0          |   0.0 |  0.00
Neigh   | 0          | 0          | 0          |   0.0 |  0.00
Comm    | 0          | 0          | 0          |   0.0 |  0.00
Output  | 0          | 0          | 0          |   0.0 |  0.00
Modify  | 0          | 0          | 0          |   0.0 |  0.00
Other   |            | 3.095e-06  |            |       |100.00

Nlocal:        12.0000 ave          12 max          12 min
Histogram: 1 0 0 0 0 0 0 0 0 0
Nghost:        116.000 ave         116 max         116 min
Histogram: 1 0 0 0 0 0 0 0 0 0
Neighs:         0.00000 ave           0 max           0 min
Histogram: 1 0 0 0 0 0 0 0 0 0
FullNghs:      192.000 ave         192 max         192 min
Histogram: 1 0 0 0 0 0 0 0 0 0

Total # of neighbors = 192
Ave neighs/atom = 16.000000
Neighbor list builds = 0
Dangerous builds = 0
Total wall time: 0:00:08
: 1 0 0 0 0 0 0 0 0 0

Total # of neighbors = 192
Ave neighs/atom = 16.000000
Neighbor list builds = 0
Dangerous builds = 0
Total wall time: 0:00:08
