LAMMPS data file via write_data, version 27 Oct 2021, timestep = 288

24 atoms
8 atom types

0 8.059030207162023 xlo xhi
0 5.6794138418255855 ylo yhi
0 30.10888 zlo zhi
1.3112768214833054e-16 0 0 xy xz yz

Masses

1 30.97376199003218
2 30.97376199003218
3 30.97376199003218
4 30.97376199003218
5 30.97376199003218
6 30.97376199003218
7 30.97376199003218
8 30.97376199003218

Atoms # atomic

1 4 0.2398799693672225 2.506245756113569 26.354238359492275 0 0 0
2 1 0.23783100686291328 5.345561189354584 28.43093867395173 0 0 0
3 2 2.4467651350965034 5.067779809905241 28.43256726583243 0 0 0
4 3 2.4495077804088 2.22634575383588 26.36044978757318 0 0 0
5 4 2.9249873251146417 4.399794427406266 26.355571603129658 0 0 0
6 1 2.9249868660249883 1.562101605782613 28.44073332348123 0 0 0
7 2 5.13404334382497 1.2776053121927435 28.440733323529884 0 0 0
8 4 5.609522429430233 0.6133611641237996 26.360449787623065 0 0 0
9 3 5.134042884719421 4.119326332381913 26.35557160316145 0 0 0
10 1 5.612265074768661 3.4513409499003087 28.43256726587066 0 0 0
11 2 7.821199203008206 3.1735595704132304 28.430938673900837 0 0 0
12 3 7.819150240467098 0.33346116183137253 26.354238359537298 0 0 0
13 6 0.23987996660453392 3.1731680853699684 3.7546416405180603 0 0 0
14 6 5.609522426667935 5.066052677355763 3.7484302123603035 0 0 0
15 7 2.9249868632364464 4.117312235696703 1.6681466765394373 0 0 0
16 8 5.13404334103643 4.40180852928657 1.668146676449459 0 0 0
17 5 2.4495077776465015 3.453068087643682 3.748430212443454 0 0 0
18 6 2.9249873223410234 1.279619414071197 3.75330839685223 0 0 0
19 7 0.23783100406704863 0.3338526521262988 1.6779413260333589 0 0 0
20 8 2.4467651323036868 0.6116340315800173 1.6763127341376938 0 0 0
21 5 7.8191502377044095 5.345952679652165 3.7546416404523737 0 0 0
22 7 5.6122650719758465 2.228072891584952 1.6763127341592223 0 0 0
23 8 7.821199200212342 2.505854271067652 1.6779413261140779 0 0 0
24 5 5.134042881945802 1.5600875090955475 3.7533083968566725 0 0 0

Velocities

1 1.4493519562532796e-09 -2.4344882140312577e-09 -5.728848598738163e-09
2 1.6176699962241842e-09 -2.4103658739283633e-09 -3.1087725567995274e-09
3 -1.3946884896556784e-09 2.419598668627206e-09 -3.006123046047227e-09
4 -1.456316923634768e-09 2.4652216247712846e-09 -5.933819852000071e-09
5 1.5462059537970667e-09 -2.4576993897181186e-09 -5.868158666426748e-09
6 1.4213336712353309e-09 -2.556215024828463e-09 -3.596788192358402e-09
7 -1.3113412421985856e-09 2.5906722166729043e-09 -3.5994902449150896e-09
8 1.5649301409856588e-09 -2.4305745408334773e-09 -5.934375114961782e-09
9 -1.4368554457557947e-09 2.492348809748485e-09 -5.869030124790478e-09
10 1.5046336347413346e-09 -2.384994806180429e-09 -3.0036915837765415e-09
11 -1.5075333906984435e-09 2.4452838702586297e-09 -3.1083286020121145e-09
12 -1.3405503242604951e-09 2.469614751173885e-09 -5.730896204306228e-09
13 1.3405644426405308e-09 2.434580891427913e-09 5.7298240356508475e-09
14 1.4561495230185966e-09 2.4305346240471067e-09 5.934473803877077e-09
15 1.3115684218605875e-09 2.556051752229223e-09 3.5981570377796263e-09
16 -1.4212787450791124e-09 -2.590729296721772e-09 3.5979147390587616e-09
17 -1.5651284514530677e-09 -2.4652164975586004e-09 5.933921743994552e-09
18 1.4369260274070926e-09 2.4575386134082563e-09 5.868149281121237e-09
19 1.5074600422885396e-09 2.4102936374104086e-09 3.1088574379572023e-09
20 -1.5046461841085603e-09 -2.4193734877842947e-09 3.004259058394518e-09
21 -1.449337288600174e-09 -2.469458173839939e-09 5.729855561532957e-09
22 1.39460322954295e-09 2.3850880263491687e-09 3.0057618112645033e-09
23 -1.6176967666257522e-09 -2.4452927131871854e-09 3.1082969982806348e-09
24 -1.5460234911549861e-09 -2.492419512429459e-09 5.868851363532846e-09
