
     Program PWSCF v.7.0 starts on 19Dec2023 at 15:25:14 

     This program is part of the open-source Quantum ESPRESSO suite
     for quantum simulation of materials; please cite
         "P. Giannozzi et al., J. Phys.:Condens. Matter 21 395502 (2009);
         "P. Giannozzi et al., J. Phys.:Condens. Matter 29 465901 (2017);
         "P. Giannozzi et al., J. Chem. Phys. 152 154105 (2020);
          URL http://www.quantum-espresso.org", 
     in publications or presentations arising from this work. More details at
     http://www.quantum-espresso.org/quote

     Parallel version (MPI & OpenMP), running on      16 processor cores
     Number of MPI processes:                16
     Threads/MPI process:                     1

     MPI processes distributed on     4 nodes
     K-points division:     npool     =       4
     R & G space division:  proc/nbgrp/npool/nimage =       4
     239979 MiB available memory on the printing compute node when the environment starts
 
     Waiting for input...
     Reading input from standard input

     Current dimensions of program PWSCF are:
     Max number of different atomic species (ntypx) = 10
     Max number of k-points (npk) =  40000
     Max angular momentum in pseudopotentials (lmaxx) =  4
     Presently no symmetry can be used with electric field

     Message from routine iosys:
     restart disabled: needed files not found

     IMPORTANT: XC functional enforced from input :
     Exchange-correlation= VDW-DF-C09
                           (   1   4  16   0   1   0   0)
     Any further DFT definition will be discarded
     Please, verify this is what you really want


     Subspace diagonalization in iterative solution of the eigenvalue problem:
     a serial algorithm will be used

 
     Parallelization info
     --------------------
     sticks:   dense  smooth     PW     G-vecs:    dense   smooth      PW
     Min         241     241     75                39015    39015    6623
     Max         244     244     76                39020    39020    6638
     Sum         967     967    301               156067   156067   26521
 
     Using Slab Decomposition
 


     bravais-lattice index     =            0
     lattice parameter (alat)  =       5.9449  a.u.
     unit-cell volume          =    1156.7915 (a.u.)^3
     number of atoms/cell      =            3
     number of atomic types    =            2
     number of electrons       =        26.00
     number of Kohn-Sham states=           17
     kinetic-energy cutoff     =     100.0000  Ry
     charge density cutoff     =     400.0000  Ry
     scf convergence threshold =      1.0E-08
     mixing beta               =       0.3000
     number of iterations used =            8  local-TF  mixing
     Exchange-correlation= VDW-DF-C09
                           (   1   4  16   0   1   0   0)

     GPU acceleration is ACTIVE.


     GPU used by master process:

        Device Number: 0
        Device name: NVIDIA A100-SXM4-40GB
        Compute capability : 80
        Ratio of single to double precision performance  : 2
        Memory Clock Rate (KHz): 1215000
        Memory Bus Width (bits): 5120
        Peak Memory Bandwidth (GB/s): ******

     celldm(1)=   5.944944  celldm(2)=   0.000000  celldm(3)=   0.000000
     celldm(4)=   0.000000  celldm(5)=   0.000000  celldm(6)=   0.000000

     crystal axes: (cart. coord. in units of alat)
               a(1) = (   1.000000   0.000000  -0.000000 )  
               a(2) = (  -0.500000   0.866025  -0.000000 )  
               a(3) = (  -0.000000   0.000000   6.357422 )  

     reciprocal axes: (cart. coord. in units 2 pi/alat)
               b(1) = (  1.000000  0.577350  0.000000 )  
               b(2) = ( -0.000000  1.154701 -0.000000 )  
               b(3) = (  0.000000  0.000000  0.157296 )  


     PseudoPot. # 1 for Mo read from file:
     /global/homes/j/jdgeorga/espresso/pseudo_new/Mo_ONCV_PBE-1.2.upf
     MD5 check sum: 2665c9f4159700498d9a5f7573bd8e9f
     Pseudo is Norm-conserving, Zval = 14.0
     Generated using ONCVPSP code by D. R. Hamann
     Using radial grid of  602 points,  6 beta functions with: 
                l(1) =   0
                l(2) =   0
                l(3) =   1
                l(4) =   1
                l(5) =   2
                l(6) =   2

     PseudoPot. # 2 for S  read from file:
     /global/homes/j/jdgeorga/espresso/pseudo_new/S_ONCV_PBE-1.2.upf
     MD5 check sum: f9d020296ee6110346977bfd66d424f6
     Pseudo is Norm-conserving, Zval =  6.0
     Generated using ONCVPSP code by D. R. Hamann
     Using radial grid of  602 points,  4 beta functions with: 
                l(1) =   0
                l(2) =   0
                l(3) =   1
                l(4) =   1

     atomic species   valence    mass     pseudopotential
        Mo            14.00    95.94000     Mo( 1.00)
        S              6.00    78.96000     S ( 1.00)

     No symmetry found


                                    s                        frac. trans.

      isym =  1     identity                                     

 cryst.   s( 1) = (     1          0          0      )
                  (     0          1          0      )
                  (     0          0          1      )

 cart.    s( 1) = (  1.0000000  0.0000000  0.0000000 )
                  (  0.0000000  1.0000000  0.0000000 )
                  (  0.0000000  0.0000000  1.0000000 )


   Cartesian axes

     site n.     atom                  positions (alat units)
         1           Mo  tau(   1) = (   0.0000000   0.0000000   0.6180945  )
         2           S   tau(   2) = (   0.0000000   0.5773503   1.1178562  )
         3           S   tau(   3) = (   0.0000000   0.5773503   0.1197804  )

   Crystallographic axes

     site n.     atom                  positions (cryst. coord.)
         1           Mo  tau(   1) = (  0.0000000  0.0000000  0.0972241  )
         2           S   tau(   2) = (  0.3333333  0.6666667  0.1758348  )
         3           S   tau(   3) = (  0.3333333  0.6666667  0.0188410  )

     number of k points=    74  Gaussian smearing, width (Ry)=  0.0100
                       cart. coord. in units 2pi/alat
        k(    1) = (   0.0000000   0.0000000   0.0000000), wk =   0.0138889
        k(    2) = (   0.0000000   0.0962250   0.0000000), wk =   0.0277778
        k(    3) = (   0.0000000   0.1924501   0.0000000), wk =   0.0277778
        k(    4) = (   0.0000000   0.2886751   0.0000000), wk =   0.0277778
        k(    5) = (   0.0000000   0.3849002   0.0000000), wk =   0.0277778
        k(    6) = (   0.0000000   0.4811252   0.0000000), wk =   0.0277778
        k(    7) = (   0.0000000  -0.5773503   0.0000000), wk =   0.0138889
        k(    8) = (   0.0833333   0.0481125   0.0000000), wk =   0.0277778
        k(    9) = (   0.0833333   0.1443376   0.0000000), wk =   0.0277778
        k(   10) = (   0.0833333   0.2405626   0.0000000), wk =   0.0277778
        k(   11) = (   0.0833333   0.3367877   0.0000000), wk =   0.0277778
        k(   12) = (   0.0833333   0.4330127   0.0000000), wk =   0.0277778
        k(   13) = (   0.0833333   0.5292377   0.0000000), wk =   0.0277778
        k(   14) = (   0.0833333  -0.5292377   0.0000000), wk =   0.0277778
        k(   15) = (   0.0833333  -0.4330127   0.0000000), wk =   0.0277778
        k(   16) = (   0.0833333  -0.3367877   0.0000000), wk =   0.0277778
        k(   17) = (   0.0833333  -0.2405626   0.0000000), wk =   0.0277778
        k(   18) = (   0.0833333  -0.1443376   0.0000000), wk =   0.0277778
        k(   19) = (   0.0833333  -0.0481125   0.0000000), wk =   0.0277778
        k(   20) = (   0.1666667   0.0962250   0.0000000), wk =   0.0277778
        k(   21) = (   0.1666667   0.1924501   0.0000000), wk =   0.0277778
        k(   22) = (   0.1666667   0.2886751   0.0000000), wk =   0.0277778
        k(   23) = (   0.1666667   0.3849002   0.0000000), wk =   0.0277778
        k(   24) = (   0.1666667   0.4811252   0.0000000), wk =   0.0277778
        k(   25) = (   0.1666667   0.5773503   0.0000000), wk =   0.0277778
        k(   26) = (   0.1666667  -0.4811252   0.0000000), wk =   0.0277778
        k(   27) = (   0.1666667  -0.3849002   0.0000000), wk =   0.0277778
        k(   28) = (   0.1666667  -0.2886751   0.0000000), wk =   0.0277778
        k(   29) = (   0.1666667  -0.1924501   0.0000000), wk =   0.0277778
        k(   30) = (   0.1666667  -0.0962250   0.0000000), wk =   0.0277778
        k(   31) = (   0.1666667  -0.0000000   0.0000000), wk =   0.0277778
        k(   32) = (   0.2500000   0.1443376   0.0000000), wk =   0.0277778
        k(   33) = (   0.2500000   0.2405626   0.0000000), wk =   0.0277778
        k(   34) = (   0.2500000   0.3367877   0.0000000), wk =   0.0277778
        k(   35) = (   0.2500000   0.4330127   0.0000000), wk =   0.0277778
        k(   36) = (   0.2500000   0.5292377   0.0000000), wk =   0.0277778
        k(   37) = (   0.2500000   0.6254628   0.0000000), wk =   0.0277778
        k(   38) = (   0.2500000  -0.4330127   0.0000000), wk =   0.0277778
        k(   39) = (   0.2500000  -0.3367877   0.0000000), wk =   0.0277778
        k(   40) = (   0.2500000  -0.2405626   0.0000000), wk =   0.0277778
        k(   41) = (   0.2500000  -0.1443376   0.0000000), wk =   0.0277778
        k(   42) = (   0.2500000  -0.0481125   0.0000000), wk =   0.0277778
        k(   43) = (   0.2500000   0.0481125   0.0000000), wk =   0.0277778
        k(   44) = (   0.3333333   0.1924501   0.0000000), wk =   0.0277778
        k(   45) = (   0.3333333   0.2886751   0.0000000), wk =   0.0277778
        k(   46) = (   0.3333333   0.3849002   0.0000000), wk =   0.0277778
        k(   47) = (   0.3333333   0.4811252   0.0000000), wk =   0.0277778
        k(   48) = (   0.3333333   0.5773503   0.0000000), wk =   0.0277778
        k(   49) = (   0.3333333   0.6735753   0.0000000), wk =   0.0277778
        k(   50) = (   0.3333333  -0.3849002   0.0000000), wk =   0.0277778
        k(   51) = (   0.3333333  -0.2886751   0.0000000), wk =   0.0277778
        k(   52) = (   0.3333333  -0.1924501   0.0000000), wk =   0.0277778
        k(   53) = (   0.3333333  -0.0962250   0.0000000), wk =   0.0277778
        k(   54) = (   0.3333333   0.0000000   0.0000000), wk =   0.0277778
        k(   55) = (   0.3333333   0.0962250   0.0000000), wk =   0.0277778
        k(   56) = (   0.4166667   0.2405626   0.0000000), wk =   0.0277778
        k(   57) = (   0.4166667   0.3367877   0.0000000), wk =   0.0277778
        k(   58) = (   0.4166667   0.4330127   0.0000000), wk =   0.0277778
        k(   59) = (   0.4166667   0.5292377   0.0000000), wk =   0.0277778
        k(   60) = (   0.4166667   0.6254628   0.0000000), wk =   0.0277778
        k(   61) = (   0.4166667   0.7216878   0.0000000), wk =   0.0277778
        k(   62) = (   0.4166667  -0.3367877   0.0000000), wk =   0.0277778
        k(   63) = (   0.4166667  -0.2405626   0.0000000), wk =   0.0277778
        k(   64) = (   0.4166667  -0.1443376   0.0000000), wk =   0.0277778
        k(   65) = (   0.4166667  -0.0481125   0.0000000), wk =   0.0277778
        k(   66) = (   0.4166667   0.0481125   0.0000000), wk =   0.0277778
        k(   67) = (   0.4166667   0.1443376   0.0000000), wk =   0.0277778
        k(   68) = (  -0.5000000  -0.2886751   0.0000000), wk =   0.0138889
        k(   69) = (  -0.5000000  -0.1924501   0.0000000), wk =   0.0277778
        k(   70) = (  -0.5000000  -0.0962250   0.0000000), wk =   0.0277778
        k(   71) = (  -0.5000000   0.0000000   0.0000000), wk =   0.0277778
        k(   72) = (  -0.5000000   0.0962250   0.0000000), wk =   0.0277778
        k(   73) = (  -0.5000000   0.1924501   0.0000000), wk =   0.0277778
        k(   74) = (  -0.5000000  -0.8660254   0.0000000), wk =   0.0138889

                       cryst. coord.
        k(    1) = (   0.0000000   0.0000000   0.0000000), wk =   0.0138889
        k(    2) = (   0.0000000   0.0833333   0.0000000), wk =   0.0277778
        k(    3) = (   0.0000000   0.1666667   0.0000000), wk =   0.0277778
        k(    4) = (   0.0000000   0.2500000   0.0000000), wk =   0.0277778
        k(    5) = (   0.0000000   0.3333333   0.0000000), wk =   0.0277778
        k(    6) = (   0.0000000   0.4166667   0.0000000), wk =   0.0277778
        k(    7) = (   0.0000000  -0.5000000   0.0000000), wk =   0.0138889
        k(    8) = (   0.0833333  -0.0000000   0.0000000), wk =   0.0277778
        k(    9) = (   0.0833333   0.0833333   0.0000000), wk =   0.0277778
        k(   10) = (   0.0833333   0.1666667   0.0000000), wk =   0.0277778
        k(   11) = (   0.0833333   0.2500000   0.0000000), wk =   0.0277778
        k(   12) = (   0.0833333   0.3333333   0.0000000), wk =   0.0277778
        k(   13) = (   0.0833333   0.4166667   0.0000000), wk =   0.0277778
        k(   14) = (   0.0833333  -0.5000000   0.0000000), wk =   0.0277778
        k(   15) = (   0.0833333  -0.4166667   0.0000000), wk =   0.0277778
        k(   16) = (   0.0833333  -0.3333333   0.0000000), wk =   0.0277778
        k(   17) = (   0.0833333  -0.2500000   0.0000000), wk =   0.0277778
        k(   18) = (   0.0833333  -0.1666667   0.0000000), wk =   0.0277778
        k(   19) = (   0.0833333  -0.0833333   0.0000000), wk =   0.0277778
        k(   20) = (   0.1666667  -0.0000000   0.0000000), wk =   0.0277778
        k(   21) = (   0.1666667   0.0833333   0.0000000), wk =   0.0277778
        k(   22) = (   0.1666667   0.1666667   0.0000000), wk =   0.0277778
        k(   23) = (   0.1666667   0.2500000   0.0000000), wk =   0.0277778
        k(   24) = (   0.1666667   0.3333333   0.0000000), wk =   0.0277778
        k(   25) = (   0.1666667   0.4166667   0.0000000), wk =   0.0277778
        k(   26) = (   0.1666667  -0.5000000   0.0000000), wk =   0.0277778
        k(   27) = (   0.1666667  -0.4166667   0.0000000), wk =   0.0277778
        k(   28) = (   0.1666667  -0.3333333   0.0000000), wk =   0.0277778
        k(   29) = (   0.1666667  -0.2500000   0.0000000), wk =   0.0277778
        k(   30) = (   0.1666667  -0.1666667   0.0000000), wk =   0.0277778
        k(   31) = (   0.1666667  -0.0833333   0.0000000), wk =   0.0277778
        k(   32) = (   0.2500000  -0.0000000   0.0000000), wk =   0.0277778
        k(   33) = (   0.2500000   0.0833333   0.0000000), wk =   0.0277778
        k(   34) = (   0.2500000   0.1666667   0.0000000), wk =   0.0277778
        k(   35) = (   0.2500000   0.2500000   0.0000000), wk =   0.0277778
        k(   36) = (   0.2500000   0.3333333   0.0000000), wk =   0.0277778
        k(   37) = (   0.2500000   0.4166667   0.0000000), wk =   0.0277778
        k(   38) = (   0.2500000  -0.5000000   0.0000000), wk =   0.0277778
        k(   39) = (   0.2500000  -0.4166667   0.0000000), wk =   0.0277778
        k(   40) = (   0.2500000  -0.3333333   0.0000000), wk =   0.0277778
        k(   41) = (   0.2500000  -0.2500000   0.0000000), wk =   0.0277778
        k(   42) = (   0.2500000  -0.1666667   0.0000000), wk =   0.0277778
        k(   43) = (   0.2500000  -0.0833333   0.0000000), wk =   0.0277778
        k(   44) = (   0.3333333  -0.0000000   0.0000000), wk =   0.0277778
        k(   45) = (   0.3333333   0.0833333   0.0000000), wk =   0.0277778
        k(   46) = (   0.3333333   0.1666667   0.0000000), wk =   0.0277778
        k(   47) = (   0.3333333   0.2500000   0.0000000), wk =   0.0277778
        k(   48) = (   0.3333333   0.3333333   0.0000000), wk =   0.0277778
        k(   49) = (   0.3333333   0.4166667   0.0000000), wk =   0.0277778
        k(   50) = (   0.3333333  -0.5000000   0.0000000), wk =   0.0277778
        k(   51) = (   0.3333333  -0.4166667   0.0000000), wk =   0.0277778
        k(   52) = (   0.3333333  -0.3333333   0.0000000), wk =   0.0277778
        k(   53) = (   0.3333333  -0.2500000   0.0000000), wk =   0.0277778
        k(   54) = (   0.3333333  -0.1666667   0.0000000), wk =   0.0277778
        k(   55) = (   0.3333333  -0.0833333   0.0000000), wk =   0.0277778
        k(   56) = (   0.4166667  -0.0000000   0.0000000), wk =   0.0277778
        k(   57) = (   0.4166667   0.0833333   0.0000000), wk =   0.0277778
        k(   58) = (   0.4166667   0.1666667   0.0000000), wk =   0.0277778
        k(   59) = (   0.4166667   0.2500000   0.0000000), wk =   0.0277778
        k(   60) = (   0.4166667   0.3333333   0.0000000), wk =   0.0277778
        k(   61) = (   0.4166667   0.4166667   0.0000000), wk =   0.0277778
        k(   62) = (   0.4166667  -0.5000000   0.0000000), wk =   0.0277778
        k(   63) = (   0.4166667  -0.4166667   0.0000000), wk =   0.0277778
        k(   64) = (   0.4166667  -0.3333333   0.0000000), wk =   0.0277778
        k(   65) = (   0.4166667  -0.2500000   0.0000000), wk =   0.0277778
        k(   66) = (   0.4166667  -0.1666667   0.0000000), wk =   0.0277778
        k(   67) = (   0.4166667  -0.0833333   0.0000000), wk =   0.0277778
        k(   68) = (  -0.5000000   0.0000000   0.0000000), wk =   0.0138889
        k(   69) = (  -0.5000000   0.0833333   0.0000000), wk =   0.0277778
        k(   70) = (  -0.5000000   0.1666667   0.0000000), wk =   0.0277778
        k(   71) = (  -0.5000000   0.2500000   0.0000000), wk =   0.0277778
        k(   72) = (  -0.5000000   0.3333333   0.0000000), wk =   0.0277778
        k(   73) = (  -0.5000000   0.4166667   0.0000000), wk =   0.0277778
        k(   74) = (  -0.5000000  -0.5000000   0.0000000), wk =   0.0138889

     Dense  grid:   156067 G-vectors     FFT dimensions: (  40,  40, 243)

     Dynamical RAM for                 wfc:       1.27 MB

     Dynamical RAM for     wfc (w. buffer):       1.27 MB

     Dynamical RAM for           str. fact:       1.19 MB

     Dynamical RAM for           local pot:       0.00 MB

     Dynamical RAM for          nlocal pot:       2.53 MB

     Dynamical RAM for                qrad:       3.21 MB

     Dynamical RAM for          rho,v,vnew:       4.02 MB

     Dynamical RAM for               rhoin:       1.34 MB

     Dynamical RAM for            rho*nmix:       9.53 MB

     Dynamical RAM for           G-vectors:       2.53 MB

     Dynamical RAM for          h,s,v(r/c):       0.05 MB

     Dynamical RAM for          <psi|beta>:       0.01 MB

     Dynamical RAM for                 psi:       2.53 MB

     Dynamical RAM for                hpsi:       2.53 MB

     Dynamical RAM for      wfcinit/wfcrot:       2.54 MB

     Estimated static dynamical RAM per process >      21.60 MB

     Estimated max dynamical RAM per process >      47.95 MB

     Estimated total dynamical RAM >     652.82 MB
     Cannot read rho : file not found

     Initial potential from superposition of free atoms

     starting charge      25.8886, renormalised to      26.0000

     negative rho (up, down):  2.329E-04 0.000E+00


     %%%%%%%%%%%%%%%%%%%%%%%%%%%%%%%%%%%%%%%%%%%%%%%%%%%%%%%%%%%%%%%%%%%%%%%%
     %                                                                      %
     % You are using vdW-DF, which was implemented by the Thonhauser group. %
     % Please cite the following two papers that made this development      %
     % possible and the two reviews that describe the various versions:     %
     %                                                                      %
     %   T. Thonhauser et al., PRL 115, 136402 (2015).                      %
     %   T. Thonhauser et al., PRB 76, 125112 (2007).                       %
     %   K. Berland et al., Rep. Prog. Phys. 78, 066501 (2015).             %
     %   D.C. Langreth et al., J. Phys.: Condens. Matter 21, 084203 (2009). %
     %                                                                      %
     %                                                                      %
     % If you are calculating the stress with vdW-DF, please also cite:     %
     %                                                                      %
     %   R. Sabatini et al., J. Phys.: Condens. Matter 24, 424209 (2012).   %
     %                                                                      %
     %%%%%%%%%%%%%%%%%%%%%%%%%%%%%%%%%%%%%%%%%%%%%%%%%%%%%%%%%%%%%%%%%%%%%%%%


     Carrying out vdW-DF run using the following parameters:
     Nqs    =  20  Npoints =  1024  r_max =  100.000
     q_mesh =  0.00001000  0.04494208  0.09755937  0.15916263
               0.23128650  0.31572767  0.41458969  0.53033537
               0.66584808  0.82450364  1.01025438  1.22772762
               1.48234092  1.78043706  2.12944203  2.53805004
               3.01644009  3.57652955  4.23227104  5.00000000


     -----------------------------------------------
     Non-local corr. energy    =       0.24159304 Ry
     -----------------------------------------------

 
     Adding external electric field

     Computed dipole along edir(3) : 
        Elec. dipole         -2.1640 Ry au,         -5.5004 Debye
        Ion. dipole          -2.1640 Ry au,         -5.5004 Debye
        Dipole               -0.0001 Ry au,         -0.0003 Debye
        Dipole field         -0.0000 Ry au, 
 
        Potential amp.        0.0001 Ry
        Total length         34.0151 bohr
 
     Message from routine qexsd_readschema :
     xml data file ./tmp/bilayer.save/data-file-schema.xml not found
     Cannot read wfcs: file not found
     Starting wfcs are random

     total cpu time spent up to now is        5.8 secs

     Self-consistent Calculation
[tb_dev] Currently allocated     2.52E+01 Mbytes, locked:    0 /   9
[tb_pin] Currently allocated     1.02E-02 Mbytes, locked:    0 /   5

     iteration #  1     ecut=   100.00 Ry     beta= 0.30
     Davidson diagonalization with overlap

---- Real-time Memory Report at c_bands before calling an iterative solver
          1752 MiB given to the printing process from OS
             0 MiB allocation reported by mallinfo(arena+hblkhd)
        234459 MiB available memory on the node where the printing process lives
     GPU memory used/free/total (MiB): 2645 / 37692 / 40338
------------------
     c_bands:  3 eigenvalues not converged
     c_bands:  4 eigenvalues not converged
     c_bands:  3 eigenvalues not converged
     c_bands:  3 eigenvalues not converged
     c_bands:  3 eigenvalues not converged
     c_bands:  3 eigenvalues not converged
     c_bands:  4 eigenvalues not converged
     c_bands:  4 eigenvalues not converged
     c_bands:  4 eigenvalues not converged
     c_bands:  4 eigenvalues not converged
     c_bands:  4 eigenvalues not converged
     c_bands:  4 eigenvalues not converged
     c_bands:  4 eigenvalues not converged
     c_bands:  4 eigenvalues not converged
     c_bands:  4 eigenvalues not converged
     ethr =  1.00E-05,  avg # of iterations = 20.8

     negative rho (up, down):  3.412E-07 0.000E+00


     -----------------------------------------------
     Non-local corr. energy    =       0.24109615 Ry
     -----------------------------------------------

 
     Adding external electric field

     Computed dipole along edir(3) : 
        Elec. dipole         -2.1639 Ry au,         -5.5000 Debye
        Ion. dipole          -2.1640 Ry au,         -5.5004 Debye
        Dipole               -0.0142 Ry au,         -0.0360 Debye
        Dipole field         -0.0002 Ry au, 
 
        Potential amp.        0.0105 Ry
        Total length         34.0151 bohr
 

     total cpu time spent up to now is        8.7 secs

     total energy              =    -178.22755188 Ry
     estimated scf accuracy    <       0.09364755 Ry
[tb_dev] Currently allocated     2.73E+00 Mbytes, locked:    0 /   9
[tb_pin] Currently allocated     6.44E-02 Mbytes, locked:    0 /   8

     iteration #  2     ecut=   100.00 Ry     beta= 0.30
     Davidson diagonalization with overlap

---- Real-time Memory Report at c_bands before calling an iterative solver
          1825 MiB given to the printing process from OS
             0 MiB allocation reported by mallinfo(arena+hblkhd)
        234366 MiB available memory on the node where the printing process lives
     GPU memory used/free/total (MiB): 2623 / 37714 / 40338
------------------
     ethr =  3.60E-04,  avg # of iterations =  1.0


     -----------------------------------------------
     Non-local corr. energy    =       0.24038126 Ry
     -----------------------------------------------

 
     Adding external electric field

     Computed dipole along edir(3) : 
        Elec. dipole         -2.1634 Ry au,         -5.4989 Debye
        Ion. dipole          -2.1640 Ry au,         -5.5004 Debye
        Dipole               -0.0551 Ry au,         -0.1401 Debye
        Dipole field         -0.0006 Ry au, 
 
        Potential amp.        0.0407 Ry
        Total length         34.0151 bohr
 

     total cpu time spent up to now is        9.4 secs

     total energy              =    -178.20920889 Ry
     estimated scf accuracy    <       0.05503656 Ry
[tb_dev] Currently allocated     2.73E+00 Mbytes, locked:    0 /   9
[tb_pin] Currently allocated     6.44E-02 Mbytes, locked:    0 /   8

     iteration #  3     ecut=   100.00 Ry     beta= 0.30
     Davidson diagonalization with overlap

---- Real-time Memory Report at c_bands before calling an iterative solver
          1825 MiB given to the printing process from OS
             0 MiB allocation reported by mallinfo(arena+hblkhd)
        234361 MiB available memory on the node where the printing process lives
     GPU memory used/free/total (MiB): 2623 / 37714 / 40338
------------------
     ethr =  2.12E-04,  avg # of iterations =  2.0


     -----------------------------------------------
     Non-local corr. energy    =       0.24043519 Ry
     -----------------------------------------------

 
     Adding external electric field

     Computed dipole along edir(3) : 
        Elec. dipole         -2.1630 Ry au,         -5.4978 Debye
        Ion. dipole          -2.1640 Ry au,         -5.5004 Debye
        Dipole               -0.0946 Ry au,         -0.2404 Debye
        Dipole field         -0.0010 Ry au, 
 
        Potential amp.        0.0699 Ry
        Total length         34.0151 bohr
 

     total cpu time spent up to now is       10.1 secs

     total energy              =    -178.21184156 Ry
     estimated scf accuracy    <       0.01394019 Ry
[tb_dev] Currently allocated     2.73E+00 Mbytes, locked:    0 /   9
[tb_pin] Currently allocated     6.44E-02 Mbytes, locked:    0 /   8

     iteration #  4     ecut=   100.00 Ry     beta= 0.30
     Davidson diagonalization with overlap

---- Real-time Memory Report at c_bands before calling an iterative solver
          1829 MiB given to the printing process from OS
             0 MiB allocation reported by mallinfo(arena+hblkhd)
        234285 MiB available memory on the node where the printing process lives
     GPU memory used/free/total (MiB): 2623 / 37714 / 40338
------------------
     ethr =  5.36E-05,  avg # of iterations =  2.0


     -----------------------------------------------
     Non-local corr. energy    =       0.24066112 Ry
     -----------------------------------------------

 
     Adding external electric field

     Computed dipole along edir(3) : 
        Elec. dipole         -2.1629 Ry au,         -5.4975 Debye
        Ion. dipole          -2.1640 Ry au,         -5.5004 Debye
        Dipole               -0.1061 Ry au,         -0.2697 Debye
        Dipole field         -0.0012 Ry au, 
 
        Potential amp.        0.0784 Ry
        Total length         34.0151 bohr
 

     total cpu time spent up to now is       10.8 secs

     total energy              =    -178.21307658 Ry
     estimated scf accuracy    <       0.00264727 Ry
[tb_dev] Currently allocated     2.73E+00 Mbytes, locked:    0 /   9
[tb_pin] Currently allocated     6.44E-02 Mbytes, locked:    0 /   8

     iteration #  5     ecut=   100.00 Ry     beta= 0.30
     Davidson diagonalization with overlap

---- Real-time Memory Report at c_bands before calling an iterative solver
          1829 MiB given to the printing process from OS
             0 MiB allocation reported by mallinfo(arena+hblkhd)
        234351 MiB available memory on the node where the printing process lives
     GPU memory used/free/total (MiB): 2623 / 37714 / 40338
------------------
     ethr =  1.02E-05,  avg # of iterations =  2.0


     -----------------------------------------------
     Non-local corr. energy    =       0.24199858 Ry
     -----------------------------------------------

 
     Adding external electric field

     Computed dipole along edir(3) : 
        Elec. dipole         -2.1626 Ry au,         -5.4968 Debye
        Ion. dipole          -2.1640 Ry au,         -5.5004 Debye
        Dipole               -0.1314 Ry au,         -0.3340 Debye
        Dipole field         -0.0014 Ry au, 
 
        Potential amp.        0.0971 Ry
        Total length         34.0151 bohr
 

     total cpu time spent up to now is       11.5 secs

     total energy              =    -178.21246794 Ry
     estimated scf accuracy    <       0.00219382 Ry
[tb_dev] Currently allocated     2.73E+00 Mbytes, locked:    0 /   9
[tb_pin] Currently allocated     6.44E-02 Mbytes, locked:    0 /   8

     iteration #  6     ecut=   100.00 Ry     beta= 0.30
     Davidson diagonalization with overlap

---- Real-time Memory Report at c_bands before calling an iterative solver
          1829 MiB given to the printing process from OS
             0 MiB allocation reported by mallinfo(arena+hblkhd)
        234350 MiB available memory on the node where the printing process lives
     GPU memory used/free/total (MiB): 2623 / 37714 / 40338
------------------
     ethr =  8.44E-06,  avg # of iterations =  1.6


     -----------------------------------------------
     Non-local corr. energy    =       0.24219563 Ry
     -----------------------------------------------

 
     Adding external electric field

     Computed dipole along edir(3) : 
        Elec. dipole         -2.1627 Ry au,         -5.4971 Debye
        Ion. dipole          -2.1640 Ry au,         -5.5004 Debye
        Dipole               -0.1204 Ry au,         -0.3060 Debye
        Dipole field         -0.0013 Ry au, 
 
        Potential amp.        0.0890 Ry
        Total length         34.0151 bohr
 

     total cpu time spent up to now is       12.2 secs

     total energy              =    -178.21218527 Ry
     estimated scf accuracy    <       0.00089952 Ry
[tb_dev] Currently allocated     2.73E+00 Mbytes, locked:    0 /   9
[tb_pin] Currently allocated     6.44E-02 Mbytes, locked:    0 /   8

     iteration #  7     ecut=   100.00 Ry     beta= 0.30
     Davidson diagonalization with overlap

---- Real-time Memory Report at c_bands before calling an iterative solver
          1829 MiB given to the printing process from OS
             0 MiB allocation reported by mallinfo(arena+hblkhd)
        234274 MiB available memory on the node where the printing process lives
     GPU memory used/free/total (MiB): 2623 / 37714 / 40338
------------------
     ethr =  3.46E-06,  avg # of iterations =  2.1


     -----------------------------------------------
     Non-local corr. energy    =       0.24239128 Ry
     -----------------------------------------------

 
     Adding external electric field

     Computed dipole along edir(3) : 
        Elec. dipole         -2.1631 Ry au,         -5.4979 Debye
        Ion. dipole          -2.1640 Ry au,         -5.5004 Debye
        Dipole               -0.0888 Ry au,         -0.2256 Debye
        Dipole field         -0.0010 Ry au, 
 
        Potential amp.        0.0656 Ry
        Total length         34.0151 bohr
 

     total cpu time spent up to now is       12.9 secs

     total energy              =    -178.21377290 Ry
     estimated scf accuracy    <       0.00077472 Ry
[tb_dev] Currently allocated     2.73E+00 Mbytes, locked:    0 /   9
[tb_pin] Currently allocated     6.44E-02 Mbytes, locked:    0 /   8

     iteration #  8     ecut=   100.00 Ry     beta= 0.30
     Davidson diagonalization with overlap

---- Real-time Memory Report at c_bands before calling an iterative solver
          1829 MiB given to the printing process from OS
             0 MiB allocation reported by mallinfo(arena+hblkhd)
        234339 MiB available memory on the node where the printing process lives
     GPU memory used/free/total (MiB): 2623 / 37714 / 40338
------------------
     ethr =  2.98E-06,  avg # of iterations =  4.0


     -----------------------------------------------
     Non-local corr. energy    =       0.24174648 Ry
     -----------------------------------------------

 
     Adding external electric field

     Computed dipole along edir(3) : 
        Elec. dipole         -2.1633 Ry au,         -5.4984 Debye
        Ion. dipole          -2.1640 Ry au,         -5.5004 Debye
        Dipole               -0.0703 Ry au,         -0.1788 Debye
        Dipole field         -0.0008 Ry au, 
 
        Potential amp.        0.0520 Ry
        Total length         34.0151 bohr
 

     total cpu time spent up to now is       13.7 secs

     total energy              =    -178.21347907 Ry
     estimated scf accuracy    <       0.00030047 Ry
[tb_dev] Currently allocated     2.73E+00 Mbytes, locked:    0 /   9
[tb_pin] Currently allocated     6.44E-02 Mbytes, locked:    0 /   8

     iteration #  9     ecut=   100.00 Ry     beta= 0.30
     Davidson diagonalization with overlap

---- Real-time Memory Report at c_bands before calling an iterative solver
          1829 MiB given to the printing process from OS
             0 MiB allocation reported by mallinfo(arena+hblkhd)
        234265 MiB available memory on the node where the printing process lives
     GPU memory used/free/total (MiB): 2623 / 37714 / 40338
------------------
     ethr =  1.16E-06,  avg # of iterations =  3.5

     negative rho (up, down):  5.381E-04 0.000E+00


     -----------------------------------------------
     Non-local corr. energy    =       0.24159550 Ry
     -----------------------------------------------

 
     Adding external electric field

     Computed dipole along edir(3) : 
        Elec. dipole         -2.1638 Ry au,         -5.4998 Debye
        Ion. dipole          -2.1640 Ry au,         -5.5004 Debye
        Dipole               -0.0205 Ry au,         -0.0521 Debye
        Dipole field         -0.0002 Ry au, 
 
        Potential amp.        0.0151 Ry
        Total length         34.0151 bohr
 

     total cpu time spent up to now is       15.1 secs

     total energy              =    -178.21270887 Ry
     estimated scf accuracy    <       0.00026789 Ry
[tb_dev] Currently allocated     2.73E+00 Mbytes, locked:    0 /   9
[tb_pin] Currently allocated     6.44E-02 Mbytes, locked:    0 /   8

     iteration # 10     ecut=   100.00 Ry     beta= 0.30
     Davidson diagonalization with overlap

---- Real-time Memory Report at c_bands before calling an iterative solver
          1829 MiB given to the printing process from OS
             0 MiB allocation reported by mallinfo(arena+hblkhd)
        234371 MiB available memory on the node where the printing process lives
     GPU memory used/free/total (MiB): 2623 / 37714 / 40338
------------------
     ethr =  1.03E-06,  avg # of iterations =  2.1

     negative rho (up, down):  1.082E-04 0.000E+00


     -----------------------------------------------
     Non-local corr. energy    =       0.24172563 Ry
     -----------------------------------------------

 
     Adding external electric field

     Computed dipole along edir(3) : 
        Elec. dipole         -2.1639 Ry au,         -5.5001 Debye
        Ion. dipole          -2.1640 Ry au,         -5.5004 Debye
        Dipole               -0.0088 Ry au,         -0.0223 Debye
        Dipole field         -0.0001 Ry au, 
 
        Potential amp.        0.0065 Ry
        Total length         34.0151 bohr
 

     total cpu time spent up to now is       16.2 secs

     total energy              =    -178.21258378 Ry
     estimated scf accuracy    <       0.00012125 Ry
[tb_dev] Currently allocated     2.73E+00 Mbytes, locked:    0 /   9
[tb_pin] Currently allocated     6.44E-02 Mbytes, locked:    0 /   8

     iteration # 11     ecut=   100.00 Ry     beta= 0.30
     Davidson diagonalization with overlap

---- Real-time Memory Report at c_bands before calling an iterative solver
          1829 MiB given to the printing process from OS
             0 MiB allocation reported by mallinfo(arena+hblkhd)
        234408 MiB available memory on the node where the printing process lives
     GPU memory used/free/total (MiB): 2623 / 37714 / 40338
------------------
     ethr =  4.66E-07,  avg # of iterations =  2.1

     negative rho (up, down):  6.629E-04 0.000E+00


     -----------------------------------------------
     Non-local corr. energy    =       0.24182640 Ry
     -----------------------------------------------

 
     Adding external electric field

     Computed dipole along edir(3) : 
        Elec. dipole         -2.1640 Ry au,         -5.5005 Debye
        Ion. dipole          -2.1640 Ry au,         -5.5004 Debye
        Dipole                0.0028 Ry au,          0.0071 Debye
        Dipole field          0.0000 Ry au, 
 
        Potential amp.       -0.0021 Ry
        Total length         34.0151 bohr
 

     total cpu time spent up to now is       17.9 secs

     total energy              =    -178.21263587 Ry
     estimated scf accuracy    <       0.00007282 Ry
[tb_dev] Currently allocated     2.73E+00 Mbytes, locked:    0 /   9
[tb_pin] Currently allocated     6.44E-02 Mbytes, locked:    0 /   8

     iteration # 12     ecut=   100.00 Ry     beta= 0.30
     Davidson diagonalization with overlap

---- Real-time Memory Report at c_bands before calling an iterative solver
          1829 MiB given to the printing process from OS
             0 MiB allocation reported by mallinfo(arena+hblkhd)
        234408 MiB available memory on the node where the printing process lives
     GPU memory used/free/total (MiB): 2623 / 37714 / 40338
------------------
     ethr =  2.80E-07,  avg # of iterations =  2.1

     negative rho (up, down):  3.892E-04 0.000E+00


     -----------------------------------------------
     Non-local corr. energy    =       0.24180439 Ry
     -----------------------------------------------

 
     Adding external electric field

     Computed dipole along edir(3) : 
        Elec. dipole         -2.1640 Ry au,         -5.5003 Debye
        Ion. dipole          -2.1640 Ry au,         -5.5004 Debye
        Dipole               -0.0016 Ry au,         -0.0040 Debye
        Dipole field         -0.0000 Ry au, 
 
        Potential amp.        0.0012 Ry
        Total length         34.0151 bohr
 

     total cpu time spent up to now is       19.5 secs

     total energy              =    -178.21263930 Ry
     estimated scf accuracy    <       0.00002189 Ry
[tb_dev] Currently allocated     2.73E+00 Mbytes, locked:    0 /   9
[tb_pin] Currently allocated     6.44E-02 Mbytes, locked:    0 /   8

     iteration # 13     ecut=   100.00 Ry     beta= 0.30
     Davidson diagonalization with overlap

---- Real-time Memory Report at c_bands before calling an iterative solver
          1829 MiB given to the printing process from OS
             0 MiB allocation reported by mallinfo(arena+hblkhd)
        234412 MiB available memory on the node where the printing process lives
     GPU memory used/free/total (MiB): 2623 / 37714 / 40338
------------------
     ethr =  8.42E-08,  avg # of iterations =  1.3

     negative rho (up, down):  2.711E-04 0.000E+00


     -----------------------------------------------
     Non-local corr. energy    =       0.24178033 Ry
     -----------------------------------------------

 
     Adding external electric field

     Computed dipole along edir(3) : 
        Elec. dipole         -2.1640 Ry au,         -5.5003 Debye
        Ion. dipole          -2.1640 Ry au,         -5.5004 Debye
        Dipole               -0.0026 Ry au,         -0.0067 Debye
        Dipole field         -0.0000 Ry au, 
 
        Potential amp.        0.0020 Ry
        Total length         34.0151 bohr
 

     total cpu time spent up to now is       21.1 secs

     total energy              =    -178.21263584 Ry
     estimated scf accuracy    <       0.00001077 Ry
[tb_dev] Currently allocated     2.73E+00 Mbytes, locked:    0 /   9
[tb_pin] Currently allocated     6.44E-02 Mbytes, locked:    0 /   8

     iteration # 14     ecut=   100.00 Ry     beta= 0.30
     Davidson diagonalization with overlap

---- Real-time Memory Report at c_bands before calling an iterative solver
          1829 MiB given to the printing process from OS
             0 MiB allocation reported by mallinfo(arena+hblkhd)
        234414 MiB available memory on the node where the printing process lives
     GPU memory used/free/total (MiB): 2623 / 37714 / 40338
------------------
     ethr =  4.14E-08,  avg # of iterations =  1.4

     negative rho (up, down):  2.865E-04 0.000E+00


     -----------------------------------------------
     Non-local corr. energy    =       0.24173087 Ry
     -----------------------------------------------

 
     Adding external electric field

     Computed dipole along edir(3) : 
        Elec. dipole         -2.1640 Ry au,         -5.5004 Debye
        Ion. dipole          -2.1640 Ry au,         -5.5004 Debye
        Dipole               -0.0004 Ry au,         -0.0009 Debye
        Dipole field         -0.0000 Ry au, 
 
        Potential amp.        0.0003 Ry
        Total length         34.0151 bohr
 

     total cpu time spent up to now is       22.6 secs

     total energy              =    -178.21264387 Ry
     estimated scf accuracy    <       0.00000676 Ry
[tb_dev] Currently allocated     2.73E+00 Mbytes, locked:    0 /   9
[tb_pin] Currently allocated     6.44E-02 Mbytes, locked:    0 /   8

     iteration # 15     ecut=   100.00 Ry     beta= 0.30
     Davidson diagonalization with overlap

---- Real-time Memory Report at c_bands before calling an iterative solver
          1829 MiB given to the printing process from OS
             0 MiB allocation reported by mallinfo(arena+hblkhd)
        234418 MiB available memory on the node where the printing process lives
     GPU memory used/free/total (MiB): 2623 / 37714 / 40338
------------------
     ethr =  2.60E-08,  avg # of iterations =  2.4

     negative rho (up, down):  2.159E-04 0.000E+00


     -----------------------------------------------
     Non-local corr. energy    =       0.24175622 Ry
     -----------------------------------------------

 
     Adding external electric field

     Computed dipole along edir(3) : 
        Elec. dipole         -2.1640 Ry au,         -5.5004 Debye
        Ion. dipole          -2.1640 Ry au,         -5.5004 Debye
        Dipole               -0.0008 Ry au,         -0.0020 Debye
        Dipole field         -0.0000 Ry au, 
 
        Potential amp.        0.0006 Ry
        Total length         34.0151 bohr
 

     total cpu time spent up to now is       23.9 secs

     total energy              =    -178.21264165 Ry
     estimated scf accuracy    <       0.00000163 Ry
[tb_dev] Currently allocated     2.73E+00 Mbytes, locked:    0 /   9
[tb_pin] Currently allocated     6.44E-02 Mbytes, locked:    0 /   8

     iteration # 16     ecut=   100.00 Ry     beta= 0.30
     Davidson diagonalization with overlap

---- Real-time Memory Report at c_bands before calling an iterative solver
          1829 MiB given to the printing process from OS
             0 MiB allocation reported by mallinfo(arena+hblkhd)
        234421 MiB available memory on the node where the printing process lives
     GPU memory used/free/total (MiB): 2623 / 37714 / 40338
------------------
     ethr =  6.26E-09,  avg # of iterations =  2.1

     negative rho (up, down):  3.769E-05 0.000E+00


     -----------------------------------------------
     Non-local corr. energy    =       0.24175550 Ry
     -----------------------------------------------

 
     Adding external electric field

     Computed dipole along edir(3) : 
        Elec. dipole         -2.1640 Ry au,         -5.5003 Debye
        Ion. dipole          -2.1640 Ry au,         -5.5004 Debye
        Dipole               -0.0020 Ry au,         -0.0050 Debye
        Dipole field         -0.0000 Ry au, 
 
        Potential amp.        0.0015 Ry
        Total length         34.0151 bohr
 

     total cpu time spent up to now is       26.4 secs

     total energy              =    -178.21264062 Ry
     estimated scf accuracy    <       0.00000068 Ry
[tb_dev] Currently allocated     2.73E+00 Mbytes, locked:    0 /   9
[tb_pin] Currently allocated     6.44E-02 Mbytes, locked:    0 /   8

     iteration # 17     ecut=   100.00 Ry     beta= 0.30
     Davidson diagonalization with overlap

---- Real-time Memory Report at c_bands before calling an iterative solver
          1829 MiB given to the printing process from OS
             0 MiB allocation reported by mallinfo(arena+hblkhd)
        234424 MiB available memory on the node where the printing process lives
     GPU memory used/free/total (MiB): 2623 / 37714 / 40338
------------------
     ethr =  2.63E-09,  avg # of iterations =  2.4

     negative rho (up, down):  4.937E-05 0.000E+00


     -----------------------------------------------
     Non-local corr. energy    =       0.24173769 Ry
     -----------------------------------------------

 
     Adding external electric field

     Computed dipole along edir(3) : 
        Elec. dipole         -2.1640 Ry au,         -5.5004 Debye
        Ion. dipole          -2.1640 Ry au,         -5.5004 Debye
        Dipole               -0.0010 Ry au,         -0.0026 Debye
        Dipole field         -0.0000 Ry au, 
 
        Potential amp.        0.0008 Ry
        Total length         34.0151 bohr
 

     total cpu time spent up to now is       28.5 secs

     total energy              =    -178.21264525 Ry
     estimated scf accuracy    <       0.00000023 Ry
[tb_dev] Currently allocated     2.73E+00 Mbytes, locked:    0 /   9
[tb_pin] Currently allocated     6.44E-02 Mbytes, locked:    0 /   8

     iteration # 18     ecut=   100.00 Ry     beta= 0.30
     Davidson diagonalization with overlap

---- Real-time Memory Report at c_bands before calling an iterative solver
          1829 MiB given to the printing process from OS
             0 MiB allocation reported by mallinfo(arena+hblkhd)
        234426 MiB available memory on the node where the printing process lives
     GPU memory used/free/total (MiB): 2623 / 37714 / 40338
------------------
     ethr =  8.84E-10,  avg # of iterations =  2.6

     negative rho (up, down):  1.524E-05 0.000E+00


     -----------------------------------------------
     Non-local corr. energy    =       0.24174254 Ry
     -----------------------------------------------

 
     Adding external electric field

     Computed dipole along edir(3) : 
        Elec. dipole         -2.1640 Ry au,         -5.5004 Debye
        Ion. dipole          -2.1640 Ry au,         -5.5004 Debye
        Dipole               -0.0009 Ry au,         -0.0024 Debye
        Dipole field         -0.0000 Ry au, 
 
        Potential amp.        0.0007 Ry
        Total length         34.0151 bohr
 

     total cpu time spent up to now is       31.5 secs

     total energy              =    -178.21264531 Ry
     estimated scf accuracy    <       0.00000009 Ry
[tb_dev] Currently allocated     2.73E+00 Mbytes, locked:    0 /   9
[tb_pin] Currently allocated     6.44E-02 Mbytes, locked:    0 /   8

     iteration # 19     ecut=   100.00 Ry     beta= 0.30
     Davidson diagonalization with overlap

---- Real-time Memory Report at c_bands before calling an iterative solver
          1829 MiB given to the printing process from OS
             0 MiB allocation reported by mallinfo(arena+hblkhd)
        234429 MiB available memory on the node where the printing process lives
     GPU memory used/free/total (MiB): 2623 / 37714 / 40338
------------------
     ethr =  3.30E-10,  avg # of iterations =  2.4


     -----------------------------------------------
     Non-local corr. energy    =       0.24174200 Ry
     -----------------------------------------------

 
     Adding external electric field

     Computed dipole along edir(3) : 
        Elec. dipole         -2.1640 Ry au,         -5.5004 Debye
        Ion. dipole          -2.1640 Ry au,         -5.5004 Debye
        Dipole               -0.0008 Ry au,         -0.0021 Debye
        Dipole field         -0.0000 Ry au, 
 
        Potential amp.        0.0006 Ry
        Total length         34.0151 bohr
 

     total cpu time spent up to now is       32.1 secs

     End of self-consistent calculation

          k = 0.0000 0.0000 0.0000 ( 19585 PWs)   bands (ev):

   -61.6938 -35.8989 -35.6452 -35.6452 -15.1414 -13.8279  -6.6680  -3.5249
    -3.5249  -2.8366  -2.3733  -2.3733  -1.0754   1.9349   1.9349   2.1559
     2.1559

     occupation numbers 
     1.0000   1.0000   1.0000   1.0000   1.0000   1.0000   1.0000   1.0000
     1.0000   1.0000   1.0000   1.0000   1.0000   0.0000   0.0000   0.0000
     0.0000

          k = 0.0000 0.0962 0.0000 ( 19605 PWs)   bands (ev):

   -61.6908 -35.8932 -35.6743 -35.6518 -15.0337 -13.7832  -6.5440  -3.7637
    -3.4112  -3.2728  -2.5447  -2.1036  -1.1139   1.7883   1.8442   2.0342
     2.1194

     occupation numbers 
     1.0000   1.0000   1.0000   1.0000   1.0000   1.0000   1.0000   1.0000
     1.0000   1.0000   1.0000   1.0000   1.0000   0.0000   0.0000   0.0000
     0.0000

          k = 0.0000 0.1925 0.0000 ( 19637 PWs)   bands (ev):

   -61.6828 -35.8775 -35.7531 -35.6697 -14.7269 -13.6562  -6.2321  -4.3098
    -3.9222  -3.0949  -2.9470  -2.0382  -1.3178   1.3498   1.7182   1.7560
     2.5351

     occupation numbers 
     1.0000   1.0000   1.0000   1.0000   1.0000   1.0000   1.0000   1.0000
     1.0000   1.0000   1.0000   1.0000   1.0000   0.0000   0.0000   0.0000
     0.0000

          k = 0.0000 0.2887 0.0000 ( 19578 PWs)   bands (ev):

   -61.6718 -35.8591 -35.8560 -35.6941 -14.2717 -13.4692  -6.0095  -4.7703
    -4.5937  -3.3976  -2.6519  -2.3080  -1.7362   1.1995   1.4853   2.0345
     2.9575

     occupation numbers 
     1.0000   1.0000   1.0000   1.0000   1.0000   1.0000   1.0000   1.0000
     1.0000   1.0000   1.0000   1.0000   1.0000   0.0000   0.0000   0.0000
     0.0000

          k = 0.0000 0.3849 0.0000 ( 19534 PWs)   bands (ev):

   -61.6607 -35.9635 -35.8345 -35.7184 -13.7582 -13.2629  -6.2689  -5.2193
    -4.8660  -3.7755  -2.6269  -2.2141  -1.9807   1.3543   1.3967   2.5191
     3.2572

     occupation numbers 
     1.0000   1.0000   1.0000   1.0000   1.0000   1.0000   1.0000   1.0000
     1.0000   1.0000   1.0000   1.0000   1.0000   0.0000   0.0000   0.0000
     0.0000

          k = 0.0000 0.4811 0.0000 ( 19506 PWs)   bands (ev):

   -61.6526 -36.0389 -35.8187 -35.7361 -13.3276 -13.0964  -6.6657  -5.6793
    -4.9831  -4.0206  -2.8279  -1.9170  -1.7881   1.3800   1.7252   2.8707
     3.4165

     occupation numbers 
     1.0000   1.0000   1.0000   1.0000   1.0000   1.0000   1.0000   1.0000
     1.0000   1.0000   1.0000   1.0000   1.0000   0.0000   0.0000   0.0000
     0.0000

          k = 0.0000-0.5774 0.0000 ( 19474 PWs)   bands (ev):

   -61.6496 -36.0663 -35.8129 -35.7425 -13.1538 -13.0314  -6.8364  -5.8501
    -5.0697  -4.1050  -2.8922  -1.8181  -1.6100   1.4246   1.9149   2.9803
     3.4642

     occupation numbers 
     1.0000   1.0000   1.0000   1.0000   1.0000   1.0000   1.0000   1.0000
     1.0000   1.0000   1.0000   1.0000   1.0000   0.0000   0.0000   0.0000
     0.0000

          k = 0.0833 0.0481 0.0000 ( 19605 PWs)   bands (ev):

   -61.6908 -35.8932 -35.6743 -35.6518 -15.0337 -13.7832  -6.5440  -3.7637
    -3.4112  -3.2728  -2.5447  -2.1036  -1.1139   1.7883   1.8442   2.0342
     2.1194

     occupation numbers 
     1.0000   1.0000   1.0000   1.0000   1.0000   1.0000   1.0000   1.0000
     1.0000   1.0000   1.0000   1.0000   1.0000   0.0000   0.0000   0.0000
     0.0000

          k = 0.0833 0.1443 0.0000 ( 19611 PWs)   bands (ev):

   -61.6853 -35.8825 -35.7267 -35.6655 -14.8263 -13.6972  -6.3220  -4.1490
    -3.7043  -3.2046  -2.9459  -1.9180  -1.2350   1.4647   1.6353   1.8183
     2.4571

     occupation numbers 
     1.0000   1.0000   1.0000   1.0000   1.0000   1.0000   1.0000   1.0000
     1.0000   1.0000   1.0000   1.0000   1.0000   0.0000   0.0000   0.0000
     0.0000

          k = 0.0833 0.2406 0.0000 ( 19579 PWs)   bands (ev):

   -61.6758 -35.8639 -35.8153 -35.6905 -14.4442 -13.5391  -6.0209  -4.6370
    -4.2536  -3.5240  -2.8781  -1.9563  -1.5561   1.1380   1.5839   1.7007
     2.9191

     occupation numbers 
     1.0000   1.0000   1.0000   1.0000   1.0000   1.0000   1.0000   1.0000
     1.0000   1.0000   1.0000   1.0000   1.0000   0.0000   0.0000   0.0000
     0.0000

          k = 0.0833 0.3368 0.0000 ( 19539 PWs)   bands (ev):

   -61.6648 -35.9160 -35.8424 -35.7194 -13.9560 -13.3391  -6.0496  -4.9148
    -4.8144  -3.9101  -2.6461  -2.2685  -1.8273   1.0876   1.5425   2.0952
     3.2715

     occupation numbers 
     1.0000   1.0000   1.0000   1.0000   1.0000   1.0000   1.0000   1.0000
     1.0000   1.0000   1.0000   1.0000   1.0000   0.0000   0.0000   0.0000
     0.0000

          k = 0.0833 0.4330 0.0000 ( 19508 PWs)   bands (ev):

   -61.6552 -36.0019 -35.8237 -35.7443 -13.4749 -13.1467  -6.4135  -5.5227
    -4.8580  -4.0806  -2.6202  -2.5458  -1.6863   1.2735   1.6765   2.5768
     3.3996

     occupation numbers 
     1.0000   1.0000   1.0000   1.0000   1.0000   1.0000   1.0000   1.0000
     1.0000   1.0000   1.0000   1.0000   1.0000   0.0000   0.0000   0.0000
     0.0000

          k = 0.0833 0.5292 0.0000 ( 19485 PWs)   bands (ev):

   -61.6496 -36.0510 -35.8129 -35.7586 -13.1616 -13.0253  -6.6924  -5.8795
    -5.0032  -4.1313  -2.8401  -2.4043  -1.4400   1.4185   1.9170   2.9754
     3.2843

     occupation numbers 
     1.0000   1.0000   1.0000   1.0000   1.0000   1.0000   1.0000   1.0000
     1.0000   1.0000   1.0000   1.0000   1.0000   0.0000   0.0000   0.0000
     0.0000

          k = 0.0833-0.5292 0.0000 ( 19485 PWs)   bands (ev):

   -61.6496 -36.0510 -35.8129 -35.7586 -13.1616 -13.0253  -6.6924  -5.8795
    -5.0032  -4.1313  -2.8401  -2.4043  -1.4400   1.4185   1.9170   2.9754
     3.2843

     occupation numbers 
     1.0000   1.0000   1.0000   1.0000   1.0000   1.0000   1.0000   1.0000
     1.0000   1.0000   1.0000   1.0000   1.0000   0.0000   0.0000   0.0000
     0.0000

          k = 0.0833-0.4330 0.0000 ( 19508 PWs)   bands (ev):

   -61.6552 -36.0019 -35.8237 -35.7443 -13.4749 -13.1467  -6.4135  -5.5227
    -4.8580  -4.0806  -2.6202  -2.5458  -1.6863   1.2735   1.6765   2.5768
     3.3996

     occupation numbers 
     1.0000   1.0000   1.0000   1.0000   1.0000   1.0000   1.0000   1.0000
     1.0000   1.0000   1.0000   1.0000   1.0000   0.0000   0.0000   0.0000
     0.0000

          k = 0.0833-0.3368 0.0000 ( 19539 PWs)   bands (ev):

   -61.6648 -35.9160 -35.8424 -35.7194 -13.9560 -13.3391  -6.0496  -4.9148
    -4.8144  -3.9101  -2.6461  -2.2685  -1.8273   1.0876   1.5425   2.0952
     3.2715

     occupation numbers 
     1.0000   1.0000   1.0000   1.0000   1.0000   1.0000   1.0000   1.0000
     1.0000   1.0000   1.0000   1.0000   1.0000   0.0000   0.0000   0.0000
     0.0000

          k = 0.0833-0.2406 0.0000 ( 19579 PWs)   bands (ev):

   -61.6758 -35.8639 -35.8153 -35.6905 -14.4442 -13.5391  -6.0209  -4.6370
    -4.2536  -3.5240  -2.8781  -1.9563  -1.5561   1.1380   1.5839   1.7007
     2.9191

     occupation numbers 
     1.0000   1.0000   1.0000   1.0000   1.0000   1.0000   1.0000   1.0000
     1.0000   1.0000   1.0000   1.0000   1.0000   0.0000   0.0000   0.0000
     0.0000

          k = 0.0833-0.1443 0.0000 ( 19611 PWs)   bands (ev):

   -61.6853 -35.8825 -35.7267 -35.6655 -14.8263 -13.6972  -6.3220  -4.1490
    -3.7043  -3.2046  -2.9459  -1.9180  -1.2350   1.4647   1.6353   1.8183
     2.4571

     occupation numbers 
     1.0000   1.0000   1.0000   1.0000   1.0000   1.0000   1.0000   1.0000
     1.0000   1.0000   1.0000   1.0000   1.0000   0.0000   0.0000   0.0000
     0.0000

          k = 0.0833-0.0481 0.0000 ( 19605 PWs)   bands (ev):

   -61.6908 -35.8932 -35.6743 -35.6518 -15.0337 -13.7832  -6.5440  -3.7637
    -3.4112  -3.2728  -2.5447  -2.1036  -1.1139   1.7883   1.8442   2.0342
     2.1194

     occupation numbers 
     1.0000   1.0000   1.0000   1.0000   1.0000   1.0000   1.0000   1.0000
     1.0000   1.0000   1.0000   1.0000   1.0000   0.0000   0.0000   0.0000
     0.0000

          k = 0.1667 0.0962 0.0000 ( 19637 PWs)   bands (ev):

   -61.6828 -35.8775 -35.7531 -35.6697 -14.7269 -13.6562  -6.2321  -4.3098
    -3.9222  -3.0949  -2.9470  -2.0382  -1.3178   1.3498   1.7182   1.7560
     2.5351

     occupation numbers 
     1.0000   1.0000   1.0000   1.0000   1.0000   1.0000   1.0000   1.0000
     1.0000   1.0000   1.0000   1.0000   1.0000   0.0000   0.0000   0.0000
     0.0000

          k = 0.1667 0.1925 0.0000 ( 19579 PWs)   bands (ev):

   -61.6758 -35.8639 -35.8153 -35.6905 -14.4442 -13.5391  -6.0209  -4.6370
    -4.2536  -3.5240  -2.8781  -1.9563  -1.5561   1.1380   1.5839   1.7007
     2.9191

     occupation numbers 
     1.0000   1.0000   1.0000   1.0000   1.0000   1.0000   1.0000   1.0000
     1.0000   1.0000   1.0000   1.0000   1.0000   0.0000   0.0000   0.0000
     0.0000

          k = 0.1667 0.2887 0.0000 ( 19547 PWs)   bands (ev):

   -61.6662 -35.8916 -35.8453 -35.7268 -14.0264 -13.3653  -5.9386  -4.7771
    -4.6679  -4.1822  -2.8769  -1.9906  -1.7622   0.9614   1.6015   1.7966
     3.3323

     occupation numbers 
     1.0000   1.0000   1.0000   1.0000   1.0000   1.0000   1.0000   1.0000
     1.0000   1.0000   1.0000   1.0000   1.0000   0.0000   0.0000   0.0000
     0.0000

          k = 0.1667 0.3849 0.0000 ( 19520 PWs)   bands (ev):

   -61.6567 -35.9632 -35.8266 -35.7669 -13.5604 -13.1714  -6.1412  -5.3814
    -4.6726  -4.2998  -3.1901  -2.3075  -1.6917   1.1201   1.7355   2.1128
     3.5554

     occupation numbers 
     1.0000   1.0000   1.0000   1.0000   1.0000   1.0000   1.0000   1.0000
     1.0000   1.0000   1.0000   1.0000   1.0000   0.0000   0.0000   0.0000
     0.0000

          k = 0.1667 0.4811 0.0000 ( 19499 PWs)   bands (ev):

   -61.6496 -36.0137 -35.8129 -35.7975 -13.1769 -13.0128  -6.3549  -5.9331
    -4.8003  -4.2060  -3.3052  -2.6985  -1.4394   1.3345   1.9676   2.4379
     3.5869

     occupation numbers 
     1.0000   1.0000   1.0000   1.0000   1.0000   1.0000   1.0000   1.0000
     1.0000   1.0000   1.0000   1.0000   1.0000   0.0000   0.0000   0.0000
     0.0000

          k = 0.1667 0.5774 0.0000 ( 19468 PWs)   bands (ev):

   -61.6471 -36.0319 -35.8089 -35.8079 -13.0249 -12.9504  -6.4344  -6.1341
    -4.9366  -4.1248  -3.2922  -2.8887  -1.2598   1.3043   2.2031   2.5775
     3.5571

     occupation numbers 
     1.0000   1.0000   1.0000   1.0000   1.0000   1.0000   1.0000   1.0000
     1.0000   1.0000   1.0000   1.0000   1.0000   0.0000   0.0000   0.0000
     0.0000

          k = 0.1667-0.4811 0.0000 ( 19499 PWs)   bands (ev):

   -61.6496 -36.0137 -35.8129 -35.7975 -13.1769 -13.0128  -6.3549  -5.9331
    -4.8003  -4.2060  -3.3052  -2.6985  -1.4394   1.3345   1.9676   2.4379
     3.5869

     occupation numbers 
     1.0000   1.0000   1.0000   1.0000   1.0000   1.0000   1.0000   1.0000
     1.0000   1.0000   1.0000   1.0000   1.0000   0.0000   0.0000   0.0000
     0.0000

          k = 0.1667-0.3849 0.0000 ( 19520 PWs)   bands (ev):

   -61.6567 -35.9632 -35.8266 -35.7669 -13.5604 -13.1714  -6.1412  -5.3814
    -4.6726  -4.2998  -3.1901  -2.3075  -1.6917   1.1201   1.7355   2.1128
     3.5554

     occupation numbers 
     1.0000   1.0000   1.0000   1.0000   1.0000   1.0000   1.0000   1.0000
     1.0000   1.0000   1.0000   1.0000   1.0000   0.0000   0.0000   0.0000
     0.0000

          k = 0.1667-0.2887 0.0000 ( 19547 PWs)   bands (ev):

   -61.6662 -35.8916 -35.8453 -35.7268 -14.0264 -13.3653  -5.9386  -4.7771
    -4.6679  -4.1822  -2.8769  -1.9906  -1.7622   0.9614   1.6015   1.7966
     3.3323

     occupation numbers 
     1.0000   1.0000   1.0000   1.0000   1.0000   1.0000   1.0000   1.0000
     1.0000   1.0000   1.0000   1.0000   1.0000   0.0000   0.0000   0.0000
     0.0000

          k = 0.1667-0.1925 0.0000 ( 19579 PWs)   bands (ev):

   -61.6758 -35.8639 -35.8153 -35.6905 -14.4442 -13.5391  -6.0209  -4.6370
    -4.2536  -3.5240  -2.8781  -1.9563  -1.5561   1.1380   1.5839   1.7007
     2.9191

     occupation numbers 
     1.0000   1.0000   1.0000   1.0000   1.0000   1.0000   1.0000   1.0000
     1.0000   1.0000   1.0000   1.0000   1.0000   0.0000   0.0000   0.0000
     0.0000

          k = 0.1667-0.0962 0.0000 ( 19637 PWs)   bands (ev):

   -61.6828 -35.8775 -35.7531 -35.6697 -14.7269 -13.6562  -6.2321  -4.3098
    -3.9222  -3.0949  -2.9470  -2.0382  -1.3178   1.3498   1.7182   1.7560
     2.5351

     occupation numbers 
     1.0000   1.0000   1.0000   1.0000   1.0000   1.0000   1.0000   1.0000
     1.0000   1.0000   1.0000   1.0000   1.0000   0.0000   0.0000   0.0000
     0.0000

          k = 0.1667-0.0000 0.0000 ( 19611 PWs)   bands (ev):

   -61.6853 -35.8825 -35.7267 -35.6655 -14.8263 -13.6972  -6.3220  -4.1490
    -3.7043  -3.2046  -2.9459  -1.9180  -1.2350   1.4647   1.6353   1.8183
     2.4571

     occupation numbers 
     1.0000   1.0000   1.0000   1.0000   1.0000   1.0000   1.0000   1.0000
     1.0000   1.0000   1.0000   1.0000   1.0000   0.0000   0.0000   0.0000
     0.0000

          k = 0.2500 0.1443 0.0000 ( 19578 PWs)   bands (ev):

   -61.6718 -35.8591 -35.8560 -35.6941 -14.2717 -13.4692  -6.0095  -4.7703
    -4.5937  -3.3976  -2.6519  -2.3080  -1.7362   1.1995   1.4853   2.0345
     2.9575

     occupation numbers 
     1.0000   1.0000   1.0000   1.0000   1.0000   1.0000   1.0000   1.0000
     1.0000   1.0000   1.0000   1.0000   1.0000   0.0000   0.0000   0.0000
     0.0000

          k = 0.2500 0.2406 0.0000 ( 19539 PWs)   bands (ev):

   -61.6648 -35.9160 -35.8424 -35.7194 -13.9560 -13.3391  -6.0496  -4.9148
    -4.8144  -3.9101  -2.6461  -2.2685  -1.8273   1.0876   1.5425   2.0952
     3.2715

     occupation numbers 
     1.0000   1.0000   1.0000   1.0000   1.0000   1.0000   1.0000   1.0000
     1.0000   1.0000   1.0000   1.0000   1.0000   0.0000   0.0000   0.0000
     0.0000

          k = 0.2500 0.3368 0.0000 ( 19520 PWs)   bands (ev):

   -61.6567 -35.9632 -35.8266 -35.7669 -13.5604 -13.1714  -6.1412  -5.3814
    -4.6726  -4.2998  -3.1901  -2.3075  -1.6917   1.1201   1.7355   2.1128
     3.5554

     occupation numbers 
     1.0000   1.0000   1.0000   1.0000   1.0000   1.0000   1.0000   1.0000
     1.0000   1.0000   1.0000   1.0000   1.0000   0.0000   0.0000   0.0000
     0.0000

          k = 0.2500 0.4330 0.0000 ( 19495 PWs)   bands (ev):

   -61.6496 -35.9888 -35.8232 -35.8129 -13.1844 -13.0066  -6.1507  -5.9576
    -4.5460  -4.2508  -3.8954  -2.6113  -1.4689   1.2780   2.0000   2.1755
     3.7679

     occupation numbers 
     1.0000   1.0000   1.0000   1.0000   1.0000   1.0000   1.0000   1.0000
     1.0000   1.0000   1.0000   1.0000   1.0000   0.0000   0.0000   0.0000
     0.0000

          k = 0.2500 0.5292 0.0000 ( 19546 PWs)   bands (ev):

   -61.6456 -35.9939 -35.8654 -35.8050 -12.9505 -12.9006  -6.3178  -6.0285
    -4.8018  -4.1680  -4.0429  -2.9623  -1.1571   1.0846   2.1967   2.4348
     3.9232

     occupation numbers 
     1.0000   1.0000   1.0000   1.0000   1.0000   1.0000   1.0000   1.0000
     1.0000   1.0000   1.0000   1.0000   1.0000   0.0000   0.0000   0.0000
     0.0000

          k = 0.2500 0.6255 0.0000 ( 19546 PWs)   bands (ev):

   -61.6456 -35.9939 -35.8654 -35.8050 -12.9505 -12.9006  -6.3178  -6.0285
    -4.8018  -4.1680  -4.0429  -2.9623  -1.1571   1.0846   2.1967   2.4348
     3.9232

     occupation numbers 
     1.0000   1.0000   1.0000   1.0000   1.0000   1.0000   1.0000   1.0000
     1.0000   1.0000   1.0000   1.0000   1.0000   0.0000   0.0000   0.0000
     0.0000

          k = 0.2500-0.4330 0.0000 ( 19495 PWs)   bands (ev):

   -61.6496 -35.9888 -35.8232 -35.8129 -13.1844 -13.0066  -6.1507  -5.9576
    -4.5460  -4.2508  -3.8954  -2.6113  -1.4689   1.2780   2.0000   2.1755
     3.7679

     occupation numbers 
     1.0000   1.0000   1.0000   1.0000   1.0000   1.0000   1.0000   1.0000
     1.0000   1.0000   1.0000   1.0000   1.0000   0.0000   0.0000   0.0000
     0.0000

          k = 0.2500-0.3368 0.0000 ( 19520 PWs)   bands (ev):

   -61.6567 -35.9632 -35.8266 -35.7669 -13.5604 -13.1714  -6.1412  -5.3814
    -4.6726  -4.2998  -3.1901  -2.3075  -1.6917   1.1201   1.7355   2.1128
     3.5554

     occupation numbers 
     1.0000   1.0000   1.0000   1.0000   1.0000   1.0000   1.0000   1.0000
     1.0000   1.0000   1.0000   1.0000   1.0000   0.0000   0.0000   0.0000
     0.0000

          k = 0.2500-0.2406 0.0000 ( 19539 PWs)   bands (ev):

   -61.6648 -35.9160 -35.8424 -35.7194 -13.9560 -13.3391  -6.0496  -4.9148
    -4.8144  -3.9101  -2.6461  -2.2685  -1.8273   1.0876   1.5425   2.0952
     3.2715

     occupation numbers 
     1.0000   1.0000   1.0000   1.0000   1.0000   1.0000   1.0000   1.0000
     1.0000   1.0000   1.0000   1.0000   1.0000   0.0000   0.0000   0.0000
     0.0000

          k = 0.2500-0.1443 0.0000 ( 19578 PWs)   bands (ev):

   -61.6718 -35.8591 -35.8560 -35.6941 -14.2717 -13.4692  -6.0095  -4.7703
    -4.5937  -3.3976  -2.6519  -2.3080  -1.7362   1.1995   1.4853   2.0345
     2.9575

     occupation numbers 
     1.0000   1.0000   1.0000   1.0000   1.0000   1.0000   1.0000   1.0000
     1.0000   1.0000   1.0000   1.0000   1.0000   0.0000   0.0000   0.0000
     0.0000

          k = 0.2500-0.0481 0.0000 ( 19579 PWs)   bands (ev):

   -61.6758 -35.8639 -35.8153 -35.6905 -14.4442 -13.5391  -6.0209  -4.6370
    -4.2536  -3.5240  -2.8781  -1.9563  -1.5561   1.1380   1.5839   1.7007
     2.9191

     occupation numbers 
     1.0000   1.0000   1.0000   1.0000   1.0000   1.0000   1.0000   1.0000
     1.0000   1.0000   1.0000   1.0000   1.0000   0.0000   0.0000   0.0000
     0.0000

          k = 0.2500 0.0481 0.0000 ( 19579 PWs)   bands (ev):

   -61.6758 -35.8639 -35.8153 -35.6905 -14.4442 -13.5391  -6.0209  -4.6370
    -4.2536  -3.5240  -2.8781  -1.9563  -1.5561   1.1380   1.5839   1.7007
     2.9191

     occupation numbers 
     1.0000   1.0000   1.0000   1.0000   1.0000   1.0000   1.0000   1.0000
     1.0000   1.0000   1.0000   1.0000   1.0000   0.0000   0.0000   0.0000
     0.0000

          k = 0.3333 0.1925 0.0000 ( 19534 PWs)   bands (ev):

   -61.6607 -35.9635 -35.8345 -35.7184 -13.7582 -13.2629  -6.2689  -5.2193
    -4.8660  -3.7755  -2.6269  -2.2141  -1.9807   1.3543   1.3967   2.5191
     3.2572

     occupation numbers 
     1.0000   1.0000   1.0000   1.0000   1.0000   1.0000   1.0000   1.0000
     1.0000   1.0000   1.0000   1.0000   1.0000   0.0000   0.0000   0.0000
     0.0000

          k = 0.3333 0.2887 0.0000 ( 19508 PWs)   bands (ev):

   -61.6552 -36.0019 -35.8237 -35.7443 -13.4749 -13.1467  -6.4135  -5.5227
    -4.8580  -4.0806  -2.6202  -2.5458  -1.6863   1.2735   1.6765   2.5768
     3.3996

     occupation numbers 
     1.0000   1.0000   1.0000   1.0000   1.0000   1.0000   1.0000   1.0000
     1.0000   1.0000   1.0000   1.0000   1.0000   0.0000   0.0000   0.0000
     0.0000

          k = 0.3333 0.3849 0.0000 ( 19499 PWs)   bands (ev):

   -61.6496 -36.0137 -35.8129 -35.7975 -13.1769 -13.0128  -6.3549  -5.9331
    -4.8003  -4.2060  -3.3052  -2.6985  -1.4394   1.3345   1.9676   2.4379
     3.5869

     occupation numbers 
     1.0000   1.0000   1.0000   1.0000   1.0000   1.0000   1.0000   1.0000
     1.0000   1.0000   1.0000   1.0000   1.0000   0.0000   0.0000   0.0000
     0.0000

          k = 0.3333 0.4811 0.0000 ( 19546 PWs)   bands (ev):

   -61.6456 -35.9939 -35.8654 -35.8050 -12.9505 -12.9006  -6.3178  -6.0285
    -4.8018  -4.1680  -4.0429  -2.9623  -1.1571   1.0846   2.1967   2.4348
     3.9232

     occupation numbers 
     1.0000   1.0000   1.0000   1.0000   1.0000   1.0000   1.0000   1.0000
     1.0000   1.0000   1.0000   1.0000   1.0000   0.0000   0.0000   0.0000
     0.0000

          k = 0.3333 0.5774 0.0000 ( 19602 PWs)   bands (ev):

   -61.6441 -35.9618 -35.9152 -35.8021 -12.8678 -12.8543  -6.4703  -5.6272
    -5.0909  -4.4885  -3.8797  -3.1585  -0.9673   0.8545   2.0856   2.6820
     4.0963

     occupation numbers 
     1.0000   1.0000   1.0000   1.0000   1.0000   1.0000   1.0000   1.0000
     1.0000   1.0000   1.0000   1.0000   1.0000   0.0000   0.0000   0.0000
     0.0000

          k = 0.3333 0.6736 0.0000 ( 19546 PWs)   bands (ev):

   -61.6456 -35.9939 -35.8654 -35.8050 -12.9505 -12.9006  -6.3178  -6.0285
    -4.8018  -4.1680  -4.0429  -2.9623  -1.1571   1.0846   2.1967   2.4348
     3.9232

     occupation numbers 
     1.0000   1.0000   1.0000   1.0000   1.0000   1.0000   1.0000   1.0000
     1.0000   1.0000   1.0000   1.0000   1.0000   0.0000   0.0000   0.0000
     0.0000

          k = 0.3333-0.3849 0.0000 ( 19499 PWs)   bands (ev):

   -61.6496 -36.0137 -35.8129 -35.7975 -13.1769 -13.0128  -6.3549  -5.9331
    -4.8003  -4.2060  -3.3052  -2.6985  -1.4394   1.3345   1.9676   2.4379
     3.5869

     occupation numbers 
     1.0000   1.0000   1.0000   1.0000   1.0000   1.0000   1.0000   1.0000
     1.0000   1.0000   1.0000   1.0000   1.0000   0.0000   0.0000   0.0000
     0.0000

          k = 0.3333-0.2887 0.0000 ( 19508 PWs)   bands (ev):

   -61.6552 -36.0019 -35.8237 -35.7443 -13.4749 -13.1467  -6.4135  -5.5227
    -4.8580  -4.0806  -2.6202  -2.5458  -1.6863   1.2735   1.6765   2.5768
     3.3996

     occupation numbers 
     1.0000   1.0000   1.0000   1.0000   1.0000   1.0000   1.0000   1.0000
     1.0000   1.0000   1.0000   1.0000   1.0000   0.0000   0.0000   0.0000
     0.0000

          k = 0.3333-0.1925 0.0000 ( 19534 PWs)   bands (ev):

   -61.6607 -35.9635 -35.8345 -35.7184 -13.7582 -13.2629  -6.2689  -5.2193
    -4.8660  -3.7755  -2.6269  -2.2141  -1.9807   1.3543   1.3967   2.5191
     3.2572

     occupation numbers 
     1.0000   1.0000   1.0000   1.0000   1.0000   1.0000   1.0000   1.0000
     1.0000   1.0000   1.0000   1.0000   1.0000   0.0000   0.0000   0.0000
     0.0000

          k = 0.3333-0.0962 0.0000 ( 19539 PWs)   bands (ev):

   -61.6648 -35.9160 -35.8424 -35.7194 -13.9560 -13.3391  -6.0496  -4.9148
    -4.8144  -3.9101  -2.6461  -2.2685  -1.8273   1.0876   1.5425   2.0952
     3.2715

     occupation numbers 
     1.0000   1.0000   1.0000   1.0000   1.0000   1.0000   1.0000   1.0000
     1.0000   1.0000   1.0000   1.0000   1.0000   0.0000   0.0000   0.0000
     0.0000

          k = 0.3333 0.0000 0.0000 ( 19547 PWs)   bands (ev):

   -61.6662 -35.8916 -35.8453 -35.7268 -14.0264 -13.3653  -5.9386  -4.7771
    -4.6679  -4.1822  -2.8769  -1.9906  -1.7622   0.9614   1.6015   1.7966
     3.3323

     occupation numbers 
     1.0000   1.0000   1.0000   1.0000   1.0000   1.0000   1.0000   1.0000
     1.0000   1.0000   1.0000   1.0000   1.0000   0.0000   0.0000   0.0000
     0.0000

          k = 0.3333 0.0962 0.0000 ( 19539 PWs)   bands (ev):

   -61.6648 -35.9160 -35.8424 -35.7194 -13.9560 -13.3391  -6.0496  -4.9148
    -4.8144  -3.9101  -2.6461  -2.2685  -1.8273   1.0876   1.5425   2.0952
     3.2715

     occupation numbers 
     1.0000   1.0000   1.0000   1.0000   1.0000   1.0000   1.0000   1.0000
     1.0000   1.0000   1.0000   1.0000   1.0000   0.0000   0.0000   0.0000
     0.0000

          k = 0.4167 0.2406 0.0000 ( 19506 PWs)   bands (ev):

   -61.6526 -36.0389 -35.8187 -35.7361 -13.3276 -13.0964  -6.6657  -5.6793
    -4.9831  -4.0206  -2.8279  -1.9170  -1.7881   1.3800   1.7252   2.8707
     3.4165

     occupation numbers 
     1.0000   1.0000   1.0000   1.0000   1.0000   1.0000   1.0000   1.0000
     1.0000   1.0000   1.0000   1.0000   1.0000   0.0000   0.0000   0.0000
     0.0000

          k = 0.4167 0.3368 0.0000 ( 19485 PWs)   bands (ev):

   -61.6496 -36.0510 -35.8129 -35.7586 -13.1616 -13.0253  -6.6924  -5.8795
    -5.0032  -4.1313  -2.8401  -2.4043  -1.4400   1.4185   1.9170   2.9754
     3.2843

     occupation numbers 
     1.0000   1.0000   1.0000   1.0000   1.0000   1.0000   1.0000   1.0000
     1.0000   1.0000   1.0000   1.0000   1.0000   0.0000   0.0000   0.0000
     0.0000

          k = 0.4167 0.4330 0.0000 ( 19468 PWs)   bands (ev):

   -61.6471 -36.0319 -35.8089 -35.8079 -13.0249 -12.9504  -6.4344  -6.1341
    -4.9366  -4.1248  -3.2922  -2.8887  -1.2598   1.3043   2.2031   2.5775
     3.5571

     occupation numbers 
     1.0000   1.0000   1.0000   1.0000   1.0000   1.0000   1.0000   1.0000
     1.0000   1.0000   1.0000   1.0000   1.0000   0.0000   0.0000   0.0000
     0.0000

          k = 0.4167 0.5292 0.0000 ( 19546 PWs)   bands (ev):

   -61.6456 -35.9939 -35.8654 -35.8050 -12.9505 -12.9006  -6.3178  -6.0285
    -4.8018  -4.1680  -4.0429  -2.9623  -1.1571   1.0846   2.1967   2.4348
     3.9232

     occupation numbers 
     1.0000   1.0000   1.0000   1.0000   1.0000   1.0000   1.0000   1.0000
     1.0000   1.0000   1.0000   1.0000   1.0000   0.0000   0.0000   0.0000
     0.0000

          k = 0.4167 0.6255 0.0000 ( 19546 PWs)   bands (ev):

   -61.6456 -35.9939 -35.8654 -35.8050 -12.9505 -12.9006  -6.3178  -6.0285
    -4.8018  -4.1680  -4.0429  -2.9623  -1.1571   1.0846   2.1967   2.4348
     3.9232

     occupation numbers 
     1.0000   1.0000   1.0000   1.0000   1.0000   1.0000   1.0000   1.0000
     1.0000   1.0000   1.0000   1.0000   1.0000   0.0000   0.0000   0.0000
     0.0000

          k = 0.4167 0.7217 0.0000 ( 19468 PWs)   bands (ev):

   -61.6471 -36.0319 -35.8089 -35.8079 -13.0249 -12.9504  -6.4344  -6.1341
    -4.9366  -4.1248  -3.2922  -2.8887  -1.2598   1.3043   2.2031   2.5775
     3.5571

     occupation numbers 
     1.0000   1.0000   1.0000   1.0000   1.0000   1.0000   1.0000   1.0000
     1.0000   1.0000   1.0000   1.0000   1.0000   0.0000   0.0000   0.0000
     0.0000

          k = 0.4167-0.3368 0.0000 ( 19485 PWs)   bands (ev):

   -61.6496 -36.0510 -35.8129 -35.7586 -13.1616 -13.0253  -6.6924  -5.8795
    -5.0032  -4.1313  -2.8401  -2.4043  -1.4400   1.4185   1.9170   2.9754
     3.2843

     occupation numbers 
     1.0000   1.0000   1.0000   1.0000   1.0000   1.0000   1.0000   1.0000
     1.0000   1.0000   1.0000   1.0000   1.0000   0.0000   0.0000   0.0000
     0.0000

          k = 0.4167-0.2406 0.0000 ( 19506 PWs)   bands (ev):

   -61.6526 -36.0389 -35.8187 -35.7361 -13.3276 -13.0964  -6.6657  -5.6793
    -4.9831  -4.0206  -2.8279  -1.9170  -1.7881   1.3800   1.7252   2.8707
     3.4165

     occupation numbers 
     1.0000   1.0000   1.0000   1.0000   1.0000   1.0000   1.0000   1.0000
     1.0000   1.0000   1.0000   1.0000   1.0000   0.0000   0.0000   0.0000
     0.0000

          k = 0.4167-0.1443 0.0000 ( 19508 PWs)   bands (ev):

   -61.6552 -36.0019 -35.8237 -35.7443 -13.4749 -13.1467  -6.4135  -5.5227
    -4.8580  -4.0806  -2.6202  -2.5458  -1.6863   1.2735   1.6765   2.5768
     3.3996

     occupation numbers 
     1.0000   1.0000   1.0000   1.0000   1.0000   1.0000   1.0000   1.0000
     1.0000   1.0000   1.0000   1.0000   1.0000   0.0000   0.0000   0.0000
     0.0000

          k = 0.4167-0.0481 0.0000 ( 19520 PWs)   bands (ev):

   -61.6567 -35.9632 -35.8266 -35.7669 -13.5604 -13.1714  -6.1412  -5.3814
    -4.6726  -4.2998  -3.1901  -2.3075  -1.6917   1.1201   1.7355   2.1128
     3.5554

     occupation numbers 
     1.0000   1.0000   1.0000   1.0000   1.0000   1.0000   1.0000   1.0000
     1.0000   1.0000   1.0000   1.0000   1.0000   0.0000   0.0000   0.0000
     0.0000

          k = 0.4167 0.0481 0.0000 ( 19520 PWs)   bands (ev):

   -61.6567 -35.9632 -35.8266 -35.7669 -13.5604 -13.1714  -6.1412  -5.3814
    -4.6726  -4.2998  -3.1901  -2.3075  -1.6917   1.1201   1.7355   2.1128
     3.5554

     occupation numbers 
     1.0000   1.0000   1.0000   1.0000   1.0000   1.0000   1.0000   1.0000
     1.0000   1.0000   1.0000   1.0000   1.0000   0.0000   0.0000   0.0000
     0.0000

          k = 0.4167 0.1443 0.0000 ( 19508 PWs)   bands (ev):

   -61.6552 -36.0019 -35.8237 -35.7443 -13.4749 -13.1467  -6.4135  -5.5227
    -4.8580  -4.0806  -2.6202  -2.5458  -1.6863   1.2735   1.6765   2.5768
     3.3996

     occupation numbers 
     1.0000   1.0000   1.0000   1.0000   1.0000   1.0000   1.0000   1.0000
     1.0000   1.0000   1.0000   1.0000   1.0000   0.0000   0.0000   0.0000
     0.0000

          k =-0.5000-0.2887 0.0000 ( 19474 PWs)   bands (ev):

   -61.6496 -36.0663 -35.8129 -35.7425 -13.1538 -13.0314  -6.8364  -5.8501
    -5.0697  -4.1050  -2.8922  -1.8181  -1.6100   1.4246   1.9149   2.9803
     3.4642

     occupation numbers 
     1.0000   1.0000   1.0000   1.0000   1.0000   1.0000   1.0000   1.0000
     1.0000   1.0000   1.0000   1.0000   1.0000   0.0000   0.0000   0.0000
     0.0000

          k =-0.5000-0.1925 0.0000 ( 19485 PWs)   bands (ev):

   -61.6496 -36.0510 -35.8129 -35.7586 -13.1616 -13.0253  -6.6924  -5.8795
    -5.0032  -4.1313  -2.8401  -2.4043  -1.4400   1.4185   1.9170   2.9754
     3.2843

     occupation numbers 
     1.0000   1.0000   1.0000   1.0000   1.0000   1.0000   1.0000   1.0000
     1.0000   1.0000   1.0000   1.0000   1.0000   0.0000   0.0000   0.0000
     0.0000

          k =-0.5000-0.0962 0.0000 ( 19499 PWs)   bands (ev):

   -61.6496 -36.0137 -35.8129 -35.7975 -13.1769 -13.0128  -6.3549  -5.9331
    -4.8003  -4.2060  -3.3052  -2.6985  -1.4394   1.3345   1.9676   2.4379
     3.5869

     occupation numbers 
     1.0000   1.0000   1.0000   1.0000   1.0000   1.0000   1.0000   1.0000
     1.0000   1.0000   1.0000   1.0000   1.0000   0.0000   0.0000   0.0000
     0.0000

          k =-0.5000 0.0000 0.0000 ( 19495 PWs)   bands (ev):

   -61.6496 -35.9888 -35.8232 -35.8129 -13.1844 -13.0066  -6.1507  -5.9576
    -4.5460  -4.2508  -3.8954  -2.6113  -1.4689   1.2780   2.0000   2.1755
     3.7679

     occupation numbers 
     1.0000   1.0000   1.0000   1.0000   1.0000   1.0000   1.0000   1.0000
     1.0000   1.0000   1.0000   1.0000   1.0000   0.0000   0.0000   0.0000
     0.0000

          k =-0.5000 0.0962 0.0000 ( 19499 PWs)   bands (ev):

   -61.6496 -36.0137 -35.8129 -35.7975 -13.1769 -13.0128  -6.3549  -5.9331
    -4.8003  -4.2060  -3.3052  -2.6985  -1.4394   1.3345   1.9676   2.4379
     3.5869

     occupation numbers 
     1.0000   1.0000   1.0000   1.0000   1.0000   1.0000   1.0000   1.0000
     1.0000   1.0000   1.0000   1.0000   1.0000   0.0000   0.0000   0.0000
     0.0000

          k =-0.5000 0.1925 0.0000 ( 19485 PWs)   bands (ev):

   -61.6496 -36.0510 -35.8129 -35.7586 -13.1616 -13.0253  -6.6924  -5.8795
    -5.0032  -4.1313  -2.8401  -2.4043  -1.4400   1.4185   1.9170   2.9754
     3.2843

     occupation numbers 
     1.0000   1.0000   1.0000   1.0000   1.0000   1.0000   1.0000   1.0000
     1.0000   1.0000   1.0000   1.0000   1.0000   0.0000   0.0000   0.0000
     0.0000

          k =-0.5000-0.8660 0.0000 ( 19474 PWs)   bands (ev):

   -61.6496 -36.0663 -35.8129 -35.7425 -13.1538 -13.0314  -6.8364  -5.8501
    -5.0697  -4.1050  -2.8922  -1.8181  -1.6100   1.4246   1.9149   2.9803
     3.4642

     occupation numbers 
     1.0000   1.0000   1.0000   1.0000   1.0000   1.0000   1.0000   1.0000
     1.0000   1.0000   1.0000   1.0000   1.0000   0.0000   0.0000   0.0000
     0.0000

     the Fermi energy is     0.1044 ev

!    total energy              =    -178.21264527 Ry
     estimated scf accuracy    <          9.1E-09 Ry
     smearing contrib. (-TS)   =      -0.00000000 Ry
     internal energy E=F+TS    =    -178.21264527 Ry

     The total energy is F=E-TS. E is the sum of the following terms:
     one-electron contribution =   -1141.46071626 Ry
     hartree contribution      =     570.41464334 Ry
     xc contribution           =     -24.67401875 Ry
     ewald contribution        =     417.50744639 Ry
     electric field correction =       0.00000001 Ry

     convergence has been achieved in  19 iterations

     Forces acting on atoms (cartesian axes, Ry/au):

     atom    1 type  1   force =     0.00000008   -0.00000008    0.00277874
     atom    2 type  2   force =    -0.00000010    0.00000011   -0.00094870
     atom    3 type  2   force =     0.00000002   -0.00000004   -0.00183005
     The non-local contrib.  to forces
     atom    1 type  1   force =     0.00000003    0.00000006   -0.00035264
     atom    2 type  2   force =    -0.00000014    0.00000018   -0.32588449
     atom    3 type  2   force =     0.00000020   -0.00000011    0.32290309
     The ionic contribution  to forces
     atom    1 type  1   force =    -0.00000000   -0.00000000   -0.00808562
     atom    2 type  2   force =     0.00000000    0.00000000   36.81830819
     atom    3 type  2   force =     0.00000000    0.00000000  -36.81022257
     The local contribution  to forces
     atom    1 type  1   force =     0.00000017   -0.00000012    0.01051422
     atom    2 type  2   force =     0.00000007   -0.00000001  -36.49358620
     atom    3 type  2   force =     0.00000006    0.00000012   36.48517674
     The core correction contribution to forces
     atom    1 type  1   force =     0.00000000    0.00000000    0.00000000
     atom    2 type  2   force =     0.00000000    0.00000000    0.00000000
     atom    3 type  2   force =     0.00000000    0.00000000    0.00000000
     The Hubbard contrib.    to forces
     atom    1 type  1   force =     0.00000000    0.00000000    0.00000000
     atom    2 type  2   force =     0.00000000    0.00000000    0.00000000
     atom    3 type  2   force =     0.00000000    0.00000000    0.00000000
     The SCF correction term to forces
     atom    1 type  1   force =     0.00000002    0.00000002    0.00043358
     atom    2 type  2   force =     0.00000010   -0.00000003    0.00008696
     atom    3 type  2   force =    -0.00000011   -0.00000001    0.00018584

     Total force =     0.003460     Total SCF correction =     0.000480
     SCF correction compared to forces is large: reduce conv_thr to get better values

     Writing all to output data dir ./tmp/bilayer.save/
 
     init_run     :      2.15s CPU      5.70s WALL (       1 calls)
     electrons    :     22.44s CPU     26.35s WALL (       1 calls)
     forces       :      0.02s CPU      0.03s WALL (       1 calls)

     Called by init_run:
     wfcinit      :      0.47s CPU      3.80s WALL (       1 calls)
                                        3.80s GPU  (       1 calls)
     wfcinit:wfcr :      0.43s CPU      3.71s WALL (      19 calls)
                                        3.71s GPU  (      19 calls)
     potinit      :      1.60s CPU      1.75s WALL (       1 calls)
     hinit0       :      0.04s CPU      0.05s WALL (       1 calls)

     Called by electrons:
     c_bands      :      5.60s CPU      8.13s WALL (      19 calls)
     sum_band     :      0.52s CPU      0.69s WALL (      19 calls)
     v_of_rho     :      4.92s CPU      5.65s WALL (      20 calls)
     v_h          :      0.03s CPU      0.05s WALL (      20 calls)
     v_xc         :      4.84s CPU      5.42s WALL (      20 calls)
     mix_rho      :     12.87s CPU     13.45s WALL (      19 calls)
     vdW_kernel   :      1.30s CPU      1.33s WALL (       1 calls)

     Called by c_bands:
     init_us_2    :      0.14s CPU      0.22s WALL (     760 calls)
     init_us_2:gp :      0.13s CPU      0.20s WALL (     760 calls)
     cegterg      :      5.01s CPU      6.55s WALL (     365 calls)

     Called by sum_band:
     sum_band:wei :      0.00s CPU      0.01s WALL (      19 calls)
                                        0.01s GPU  (      19 calls)
     sum_band:loo :      0.45s CPU      0.57s WALL (      19 calls)
                                        0.57s GPU  (      19 calls)
     sum_band:buf :      0.05s CPU      0.07s WALL (     361 calls)
                                        0.06s GPU  (     361 calls)
     sum_band:ini :      0.08s CPU      0.12s WALL (     361 calls)
                                        0.12s GPU  (     361 calls)

     Called by *egterg:
     cdiaghg      :      0.65s CPU      1.88s WALL (    1583 calls)
                                        1.85s GPU  (    1583 calls)
     cegterg:over :      0.44s CPU      0.49s WALL (    1222 calls)
     cegterg:upda :      0.05s CPU      0.06s WALL (    1222 calls)
     cegterg:last :      0.04s CPU      0.04s WALL (    1016 calls)
     h_psi        :      3.39s CPU      6.58s WALL (    1606 calls)
                                        6.57s GPU  (    1606 calls)
     g_psi        :      0.00s CPU      0.02s WALL (    1222 calls)
                                        0.01s GPU  (    1222 calls)

     Called by h_psi:
     h_psi:calbec :      0.54s CPU      2.70s WALL (    1606 calls)
                                        2.69s GPU  (    1606 calls)
     vloc_psi     :      2.70s CPU      3.73s WALL (    1606 calls)
                                        3.71s GPU  (    1606 calls)
     add_vuspsi   :      0.06s CPU      0.10s WALL (    1606 calls)
                                        0.09s GPU  (    1606 calls)

     General routines
     calbec       :      0.53s CPU      2.67s WALL (    1682 calls)
     fft          :      1.46s CPU      1.91s WALL (    1201 calls)
                                        0.14s GPU  (     142 calls)
     ffts         :      9.19s CPU      9.56s WALL (    7715 calls)
     fftw         :      2.71s CPU      3.88s WALL (    5674 calls)
                                        3.75s GPU  (    5674 calls)
     davcio       :      0.30s CPU      0.51s WALL (    1426 calls)
 
     Parallel routines
 
     PWSCF        :     24.68s CPU     32.43s WALL

 
   This run was terminated on:  15:25:46  19Dec2023            

=------------------------------------------------------------------------------=
   JOB DONE.
=------------------------------------------------------------------------------=
